/*--------------------------------*- C++ -*----------------------------------*\
  =========                 |
  \\      /  F ield         | OpenFOAM: The Open Source CFD Toolbox
   \\    /   O peration     | Website:  https://openfoam.org
    \\  /    A nd           | Version:  8
     \\/     M anipulation  |
\*---------------------------------------------------------------------------*/
FoamFile
{
    version     2.0;
    format      ascii;
    class       surfaceScalarField;
    location    "3";
    object      phi;
}
// * * * * * * * * * * * * * * * * * * * * * * * * * * * * * * * * * * * * * //

dimensions      [0 3 -1 0 0 0 0];

internalField   nonuniform List<scalar> 
760
(
-1.11477e-06
1.11477e-06
-3.484e-06
2.36924e-06
-5.96199e-06
2.47799e-06
-8.31692e-06
2.35492e-06
-1.0462e-05
2.14503e-06
-1.23292e-05
1.86724e-06
-1.38626e-05
1.53341e-06
-1.50075e-05
1.14485e-06
-1.57245e-05
7.16996e-07
-1.59992e-05
2.74781e-07
-1.58478e-05
-1.51413e-07
-1.52748e-05
-5.73056e-07
-1.42897e-05
-9.85017e-07
-1.29313e-05
-1.35842e-06
-1.12242e-05
-1.70714e-06
-9.16477e-06
-2.05942e-06
-6.76115e-06
-2.40361e-06
-4.0667e-06
-2.69445e-06
-1.35009e-06
-2.71662e-06
-1.35009e-06
-2.10846e-06
3.22323e-06
-5.63838e-06
5.89916e-06
-9.18898e-06
6.02858e-06
-1.24938e-05
5.65975e-06
-1.54776e-05
5.12883e-06
-1.80523e-05
4.44198e-06
-2.01398e-05
3.62093e-06
-2.16944e-05
2.69936e-06
-2.26917e-05
1.71434e-06
-2.31014e-05
6.8448e-07
-2.29084e-05
-3.44445e-07
-2.21402e-05
-1.34116e-06
-2.08227e-05
-2.30257e-06
-1.89621e-05
-3.21901e-06
-1.65745e-05
-4.09471e-06
-1.36915e-05
-4.94241e-06
-1.0339e-05
-5.75615e-06
-6.53462e-06
-6.49882e-06
-2.50623e-06
-6.74501e-06
-3.85632e-06
-1.76879e-06
4.99202e-06
-4.56702e-06
8.69739e-06
-7.24254e-06
8.7041e-06
-9.65291e-06
8.0701e-06
-1.17723e-05
7.24822e-06
-1.35783e-05
6.24797e-06
-1.50444e-05
5.08706e-06
-1.61383e-05
3.79326e-06
-1.68269e-05
2.40296e-06
-1.7118e-05
9.75537e-07
-1.70173e-05
-4.45142e-07
-1.65162e-05
-1.84226e-06
-1.56195e-05
-3.19927e-06
-1.43409e-05
-4.49761e-06
-1.26894e-05
-5.74617e-06
-1.06616e-05
-6.9702e-06
-8.23374e-06
-8.18405e-06
-5.34868e-06
-9.38389e-06
-2.09984e-06
-9.99385e-06
-5.95616e-06
-1.27316e-06
6.26517e-06
-3.21086e-06
1.06351e-05
-4.95633e-06
1.04496e-05
-6.46324e-06
9.57702e-06
-7.75879e-06
8.54376e-06
-8.85007e-06
7.33924e-06
-9.71966e-06
5.95666e-06
-1.03715e-05
4.44514e-06
-1.08088e-05
2.84021e-06
-1.10146e-05
1.1814e-06
-1.09845e-05
-4.75251e-07
-1.07294e-05
-2.09738e-06
-1.02521e-05
-3.67655e-06
-9.54298e-06
-5.20676e-06
-8.58896e-06
-6.70019e-06
-7.37042e-06
-8.18873e-06
-5.84291e-06
-9.71156e-06
-3.90864e-06
-1.13182e-05
-1.57634e-06
-1.23262e-05
-7.53249e-06
-8.17037e-07
7.08221e-06
-2.01787e-06
1.18359e-05
-3.03174e-06
1.14634e-05
-3.85882e-06
1.04041e-05
-4.53773e-06
9.22267e-06
-5.09874e-06
7.90025e-06
-5.56002e-06
6.41793e-06
-5.91553e-06
4.80063e-06
-6.16679e-06
3.09147e-06
-6.31929e-06
1.33391e-06
-6.36887e-06
-4.25672e-07
-6.30744e-06
-2.15881e-06
-6.12725e-06
-3.85675e-06
-5.81839e-06
-5.51562e-06
-5.36355e-06
-7.15503e-06
-4.73369e-06
-8.81859e-06
-3.87379e-06
-1.05715e-05
-2.67926e-06
-1.25127e-05
-1.11773e-06
-1.38877e-05
-8.65022e-06
-4.20296e-07
7.50251e-06
-9.99961e-07
1.24156e-05
-1.42412e-06
1.18876e-05
-1.72763e-06
1.07076e-05
-1.96204e-06
9.45707e-06
-2.14895e-06
8.08716e-06
-2.31192e-06
6.58091e-06
-2.46283e-06
4.95154e-06
-2.60343e-06
3.23207e-06
-2.73285e-06
1.46333e-06
-2.84299e-06
-3.1554e-07
-2.921e-06
-2.0808e-06
-2.9539e-06
-3.82385e-06
-2.92526e-06
-5.54426e-06
-2.81387e-06
-7.26642e-06
-2.59211e-06
-9.04035e-06
-2.21422e-06
-1.09494e-05
-1.59709e-06
-1.31298e-05
-6.93171e-07
-1.47916e-05
-9.34339e-06
-8.69467e-08
7.58946e-06
-1.41164e-07
1.24698e-05
-1.01353e-07
1.18478e-05
-8.52987e-09
1.06148e-05
9.39834e-08
9.35457e-06
1.75076e-07
8.00607e-06
2.14006e-07
6.54198e-06
1.989e-07
4.96665e-06
1.27232e-07
3.30373e-06
3.07907e-09
1.58748e-06
-1.60186e-07
-1.52273e-07
-3.42025e-07
-1.89896e-06
-5.22704e-07
-3.64317e-06
-6.80485e-07
-5.38648e-06
-7.95081e-07
-7.15182e-06
-8.47188e-07
-8.98825e-06
-8.10565e-07
-1.0986e-05
-6.42186e-07
-1.32982e-05
-2.97108e-07
-1.51367e-05
-9.6405e-06
1.89345e-07
7.40011e-06
5.70539e-07
1.20886e-05
9.82099e-07
1.14362e-05
1.37499e-06
1.02219e-05
1.72242e-06
9.00714e-06
1.99718e-06
7.73131e-06
2.17749e-06
6.36166e-06
2.25185e-06
4.89229e-06
2.21818e-06
3.3374e-06
2.08449e-06
1.72118e-06
1.86998e-06
6.22333e-08
1.60393e-06
-1.63292e-06
1.31537e-06
-3.35461e-06
1.03186e-06
-5.10297e-06
7.72605e-07
-6.89257e-06
5.44851e-07
-8.7605e-06
3.47868e-07
-1.0789e-05
1.75024e-07
-1.31254e-05
4.92024e-08
-1.50109e-05
-9.5913e-06
4.26884e-07
6.97323e-06
1.16078e-06
1.13547e-05
1.85856e-06
1.07384e-05
2.4764e-06
9.60408e-06
3.00232e-06
8.48122e-06
3.41852e-06
7.31511e-06
3.70146e-06
6.07872e-06
3.83678e-06
4.75697e-06
3.82118e-06
3.353e-06
3.66634e-06
1.87601e-06
3.39783e-06
3.30747e-07
3.05299e-06
-1.28808e-06
2.67233e-06
-2.97395e-06
2.29261e-06
-4.72326e-06
1.93669e-06
-6.53664e-06
1.60214e-06
-8.42595e-06
1.25587e-06
-1.04427e-05
8.41224e-07
-1.27107e-05
3.32912e-07
-1.45025e-05
-9.25838e-06
6.25657e-07
6.34757e-06
1.63699e-06
1.03434e-05
2.54682e-06
9.82862e-06
3.32878e-06
8.82213e-06
3.98846e-06
7.82155e-06
4.51354e-06
6.79003e-06
4.87858e-06
5.71368e-06
5.06277e-06
4.57278e-06
5.05859e-06
3.35718e-06
4.87743e-06
2.05718e-06
4.54952e-06
6.58661e-07
4.11912e-06
-8.57682e-07
3.64047e-06
-2.4953e-06
3.16601e-06
-4.2488e-06
2.73044e-06
-6.10107e-06
2.33012e-06
-8.02563e-06
1.90399e-06
-1.00166e-05
1.34431e-06
-1.2151e-05
5.60654e-07
-1.37189e-05
-8.69773e-06
7.79625e-07
5.56794e-06
1.98927e-06
9.13373e-06
3.04082e-06
8.77707e-06
3.93703e-06
7.92592e-06
4.70339e-06
7.05519e-06
5.32544e-06
6.16797e-06
5.77273e-06
5.26639e-06
6.01199e-06
4.33352e-06
6.02666e-06
3.34252e-06
5.82189e-06
2.26195e-06
5.42867e-06
1.05188e-06
4.89705e-06
-3.2606e-07
4.29633e-06
-1.89458e-06
3.70149e-06
-3.65396e-06
3.17037e-06
-5.56995e-06
2.71325e-06
-7.56851e-06
2.26081e-06
-9.56417e-06
1.64876e-06
-1.1539e-05
7.17495e-07
-1.27876e-05
-7.98023e-06
8.7441e-07
4.69353e-06
2.18615e-06
7.82199e-06
3.30429e-06
7.65894e-06
4.27259e-06
6.95762e-06
5.13278e-06
6.195e-06
5.85856e-06
5.44219e-06
6.40595e-06
4.719e-06
6.7237e-06
4.01577e-06
6.77968e-06
3.28654e-06
6.56757e-06
2.47406e-06
6.11272e-06
1.50673e-06
5.46748e-06
3.19183e-07
4.7141e-06
-1.14121e-06
3.95338e-06
-2.89323e-06
3.27863e-06
-4.8952e-06
2.73646e-06
-7.02634e-06
2.28077e-06
-9.10848e-06
1.70501e-06
-1.09632e-05
7.65651e-07
-1.18482e-05
-7.21458e-06
8.79066e-07
3.81446e-06
2.1631e-06
6.53796e-06
3.26008e-06
6.56196e-06
4.26234e-06
5.95535e-06
5.21331e-06
5.24403e-06
6.06401e-06
4.59149e-06
6.74339e-06
4.03961e-06
7.18033e-06
3.57883e-06
7.32111e-06
3.14576e-06
7.1421e-06
2.65308e-06
6.65357e-06
1.99527e-06
5.90202e-06
1.07074e-06
4.97532e-06
-2.14509e-07
3.99704e-06
-1.91495e-06
3.10552e-06
-4.00368e-06
2.41233e-06
-6.33315e-06
1.93314e-06
-8.62929e-06
1.47087e-06
-1.0501e-05
6.85337e-07
-1.10627e-05
-6.52925e-06
7.34809e-07
3.07965e-06
1.80699e-06
5.46577e-06
2.77762e-06
5.59133e-06
3.77893e-06
4.95404e-06
4.82581e-06
4.19714e-06
5.83226e-06
3.58503e-06
6.68673e-06
3.18514e-06
7.29412e-06
2.97144e-06
7.57878e-06
2.8611e-06
7.49757e-06
2.73428e-06
7.03831e-06
2.45454e-06
6.22841e-06
1.88064e-06
5.14542e-06
8.68482e-07
3.92166e-06
-6.91198e-07
2.73856e-06
-2.82058e-06
1.79629e-06
-5.39088e-06
1.21735e-06
-8.05035e-06
8.94706e-07
-1.01783e-05
4.39694e-07
-1.06077e-05
-6.08956e-06
3.41991e-07
2.73766e-06
9.49045e-07
4.85872e-06
1.68277e-06
4.8576e-06
2.66197e-06
3.97484e-06
3.81864e-06
3.04046e-06
5.00257e-06
2.4011e-06
6.06439e-06
2.1233e-06
6.88813e-06
2.1477e-06
7.38328e-06
2.36596e-06
7.48622e-06
2.63135e-06
7.15896e-06
2.7818e-06
6.39839e-06
2.64121e-06
5.25014e-06
2.01673e-06
3.82553e-06
7.33402e-07
2.32059e-06
-1.31563e-06
1.01653e-06
-4.08683e-06
1.85539e-07
-7.21937e-06
-7.20801e-08
-9.9207e-06
-5.36736e-08
-1.06261e-05
-6.14324e-06
-4.41391e-07
3.17905e-06
-5.91324e-07
5.00865e-06
-1.63358e-07
4.42964e-06
8.00796e-07
3.01068e-06
2.07271e-06
1.76854e-06
3.42206e-06
1.05174e-06
4.67528e-06
8.70082e-07
5.71154e-06
1.11144e-06
6.4477e-06
1.62981e-06
6.81581e-06
2.26323e-06
6.75828e-06
2.83933e-06
6.23339e-06
3.1661e-06
5.22864e-06
3.02149e-06
3.7869e-06
2.17515e-06
2.05218e-06
4.19082e-07
3.26156e-07
-2.36081e-06
-9.45926e-07
-5.94727e-06
-1.34044e-06
-9.52619e-06
-8.29746e-07
-1.11368e-05
-6.97298e-06
-1.73864e-06
4.91769e-06
-2.81939e-06
6.0894e-06
-2.62611e-06
4.23636e-06
-1.63089e-06
2.01547e-06
-3.0358e-07
4.41224e-07
1.07554e-06
-3.27375e-07
2.36122e-06
-4.15601e-07
3.47883e-06
-6.15864e-09
4.38442e-06
7.24209e-07
5.03726e-06
1.61039e-06
5.38331e-06
2.49328e-06
5.34107e-06
3.20834e-06
4.81297e-06
3.54958e-06
3.73628e-06
3.25184e-06
2.13672e-06
2.01865e-06
1.84409e-07
-4.08513e-07
-1.65285e-06
-4.11001e-06
-2.5852e-06
-8.59384e-06
-1.84198e-06
-1.188e-05
-8.81496e-06
-3.4075e-06
8.32519e-06
-5.01031e-06
7.69221e-06
-4.69795e-06
3.924e-06
-3.71365e-06
1.03116e-06
-2.66154e-06
-6.1087e-07
-1.70802e-06
-1.28089e-06
-8.54562e-07
-1.26906e-06
-4.79569e-08
-8.12765e-07
7.57281e-07
-8.10268e-08
1.5698e-06
7.97871e-07
2.35401e-06
1.70906e-06
3.02829e-06
2.53406e-06
3.45169e-06
3.12619e-06
3.41256e-06
3.29096e-06
2.68865e-06
2.74257e-06
1.17255e-06
1.10758e-06
-9.39286e-07
-1.99817e-06
-2.81604e-06
-6.71708e-06
-2.71756e-06
-1.19785e-05
-1.15325e-05
-3.39844e-06
1.17236e-05
-3.04793e-06
7.34171e-06
-1.8557e-06
2.73178e-06
-1.22994e-06
4.05406e-07
-1.20878e-06
-6.32028e-07
-1.50201e-06
-9.87663e-07
-1.81636e-06
-9.54704e-07
-1.93563e-06
-6.93501e-07
-1.72057e-06
-2.9609e-07
-1.08822e-06
1.6552e-07
-1.89891e-08
6.39829e-07
1.41374e-06
1.10133e-06
3.04513e-06
1.4948e-06
4.62154e-06
1.71456e-06
5.73895e-06
1.62515e-06
5.84223e-06
1.0043e-06
4.38801e-06
-5.43957e-07
1.35221e-06
-3.68128e-06
-1.52562e-06
-9.10067e-06
-1.30581e-05
1.17236e-05
1.90653e-05
2.17971e-05
2.22025e-05
2.15705e-05
2.05828e-05
1.96281e-05
1.89346e-05
1.86385e-05
1.88041e-05
1.94439e-05
2.05452e-05
2.204e-05
2.37546e-05
2.53797e-05
2.6384e-05
2.58401e-05
2.21588e-05
1.30581e-05
)
;

boundaryField
{
    movingWall
    {
        type            calculated;
        value           uniform 0;
    }
    fixedWalls
    {
        type            calculated;
        value           uniform 0;
    }
    frontAndBack
    {
        type            empty;
        value           nonuniform List<scalar> 0();
    }
}


// ************************************************************************* //
