# vtk DataFile Version 5.1
vtk output
ASCII
DATASET POLYDATA
POINTS 4240 float
0.912192 1.33139 2.5 0.872964 1.37998 2.5 0.872958 1.42941 2.5 
0.872727 1.47988 2.5 0.911966 1.53129 2.5 0.911646 1.58376 2.5 
0.95 1.63666 2.5 0.95 1.23665 2.5 0.91195 1.28386 2.5 
0.873194 0.575003 2.5 0.873195 0.625014 2.5 0.873195 0.675043 2.5 
0.873196 0.725116 2.5 0.873198 0.775276 2.5 0.873198 0.825597 2.5 
0.873187 0.876182 2.5 0.873133 0.927156 2.5 0.872972 0.978646 2.5 
0.912099 1.03072 2.5 0.830355 -0.960256 2.5 0.872475 -0.918502 2.5 
0.872777 -0.874273 2.5 0.872985 -0.827162 2.5 0.873074 -0.777863 2.5 
0.873121 -0.727396 2.5 0.873152 -0.676589 2.5 0.873175 -0.625902 2.5 
0.873188 -0.575447 2.5 0.873193 -0.525197 2.5 0.873194 -0.475077 2.5 
0.873194 -0.425026 2.5 0.873194 -0.375007 2.5 0.873194 -0.325 2.5 
0.873194 -0.274999 2.5 0.873194 -0.225001 2.5 0.873194 -0.175001 2.5 
0.873194 -0.124999 2.5 0.873194 -0.0749993 2.5 0.873194 -0.0249994 2.5 
0.873194 0.0250004 2.5 0.873194 0.0750004 2.5 0.873194 0.125001 2.5 
0.873194 0.175001 2.5 0.873194 0.224999 2.5 0.873194 0.274999 2.5 
0.873194 0.324999 2.5 0.873194 0.374999 2.5 0.873194 0.425001 2.5 
0.873194 0.474999 2.5 0.873194 0.525 2.5 0.912118 1.83241 2.5 
0.872926 1.88112 2.5 0.873049 1.93006 2.5 0.873004 1.97835 2.5 
0.872795 2.02487 2.5 0.872485 2.06878 2.5 0.83036 2.11036 2.5 
0.911818 1.0835 2.5 0.95 1.13661 2.5 0.95 1.78414 2.5 
0.785114 2.15 2.5 0.785114 -0.999998 2.5 -2.25911 -1 2.5 
-2.21385 -1 2.5 -2.17007 -1 2.5 -2.1187 -1 2.5 
-2.06946 -1 2.5 -2.01654 -1 2.5 -1.96534 -1 2.5 
-1.9139 -1 2.5 -1.86328 -1 2.5 -1.81295 -1 2.5 
-1.6128 -1 2.5 -1.5628 -1 2.5 -1.6628 -1 2.5 
-1.5128 -1 2.5 -1.4628 -1 2.5 -1.4128 -1 2.5 
-1.0128 -1 2.5 -0.9628 -1 2.5 -1.0628 -1 2.5 
-0.9128 -1 2.5 -0.8628 -1 2.5 -0.8128 -1 2.5 
-0.6128 -1 2.5 -0.5628 -1 2.5 -0.6628 -1 2.5 
-0.5128 -1 2.5 -0.4628 -1 2.5 -0.4128 -1 2.5 
-0.2128 -1 2.5 -0.1628 -1 2.5 -0.2628 -1 2.5 
-0.1128 -1 2.5 -0.0628 -1 2.5 -0.0128 -1 2.5 
0.0372 -1 2.5 0.0872 -1 2.5 0.1872 -1 2.5 
0.2372 -1 2.5 0.1372 -1 2.5 0.2872 -1 2.5 
0.3372 -1 2.5 0.387203 -1 2.5 0.587571 -1 2.5 
0.63807 -0.999999 2.5 0.537363 -1 2.5 0.687963 -0.999999 2.5 
0.738463 -0.999998 2.5 -1.76285 -1 2.5 -1.71281 -1 2.5 
-1.3628 -1 2.5 -1.3128 -1 2.5 -1.2628 -1 2.5 
-1.2128 -1 2.5 -1.1628 -1 2.5 -1.1128 -1 2.5 
-0.7628 -1 2.5 -0.7128 -1 2.5 -0.3628 -1 2.5 
-0.3128 -1 2.5 0.437215 -1 2.5 0.48725 -1 2.5 
-2.3 -1 2.5 -2.3 -0.918263 2.5 -2.3 -0.961244 2.5 
-2.3 -0.87629 2.5 -2.3 -0.826892 2.5 -2.3 -0.778956 2.5 
-2.3 -0.325 2.5 -2.3 -0.375001 2.5 -2.3 -0.425005 2.5 
-2.3 -0.275 2.5 -2.3 -0.225 2.5 -2.3 -0.175 2.5 
-2.3 -0.125 2.5 -2.3 -0.075 2.5 -2.3 -0.025 2.5 
-2.3 0.025 2.5 -2.3 0.075 2.5 -2.3 0.125 2.5 
-2.3 0.575 2.5 -2.3 0.525 2.5 -2.3 0.475 2.5 
-2.3 0.625 2.5 -2.3 0.875 2.5 -2.3 0.825 2.5 
-2.3 0.775 2.5 -2.3 0.925 2.5 -2.3 0.975 2.5 
-2.3 1.025 2.5 -2.3 1.075 2.5 -2.3 1.125 2.5 
-2.3 1.175 2.5 -2.3 1.225 2.5 -2.3 1.87724 2.5 
-2.3 1.8267 2.5 -2.3 1.77573 2.5 -2.3 1.92896 2.5 
-2.3 1.97689 2.5 -2.3 2.02629 2.5 -2.3 2.06826 2.5 
-2.3 2.11124 2.5 -2.3 -0.727242 2.5 -2.3 -0.6767 2.5 
-2.3 -0.625728 2.5 -2.3 -0.575318 2.5 -2.3 -0.525098 2.5 
-2.3 -0.47503 2.5 -2.3 0.175 2.5 -2.3 0.225 2.5 
-2.3 0.275 2.5 -2.3 0.325 2.5 -2.3 0.375 2.5 
-2.3 0.425 2.5 -2.3 0.675 2.5 -2.3 0.725 2.5 
-2.3 1.275 2.5 -2.3 1.325 2.5 -2.3 1.375 2.5 
-2.3 1.425 2.5 -2.3 1.475 2.5 -2.3 1.525 2.5 
-2.3 1.57501 2.5 -2.3 1.62503 2.5 -2.3 1.6751 2.5 
-2.3 1.72532 2.5 -2.3 2.15 2.5 0.95 1.19028 2.5 
0.95 1.69028 2.5 0.95 1.73689 2.5 -2.21385 2.15 2.5 
-2.25911 2.15 2.5 -1.76285 2.15 2.5 -1.81295 2.15 2.5 
-1.86328 2.15 2.5 -1.71281 2.15 2.5 -1.6628 2.15 2.5 
-1.6128 2.15 2.5 -0.9628 2.15 2.5 -1.0128 2.15 2.5 
-1.0628 2.15 2.5 -0.9128 2.15 2.5 -0.8628 2.15 2.5 
-0.8128 2.15 2.5 -0.5628 2.15 2.5 -0.6128 2.15 2.5 
-0.6628 2.15 2.5 -0.5128 2.15 2.5 -0.1628 2.15 2.5 
-0.2128 2.15 2.5 -0.2628 2.15 2.5 -0.1128 2.15 2.5 
-0.0628 2.15 2.5 -0.0128 2.15 2.5 0.437215 2.15 2.5 
0.387203 2.15 2.5 0.3372 2.15 2.5 0.48725 2.15 2.5 
0.537363 2.15 2.5 0.587571 2.15 2.5 0.738463 2.15 2.5 
-2.17007 2.15 2.5 -2.1187 2.15 2.5 -2.06946 2.15 2.5 
-2.01654 2.15 2.5 -1.96534 2.15 2.5 -1.9139 2.15 2.5 
-1.5628 2.15 2.5 -1.5128 2.15 2.5 -1.4628 2.15 2.5 
-1.4128 2.15 2.5 -1.3628 2.15 2.5 -1.3128 2.15 2.5 
-1.2628 2.15 2.5 -1.2128 2.15 2.5 -1.1628 2.15 2.5 
-1.1128 2.15 2.5 -0.7628 2.15 2.5 -0.7128 2.15 2.5 
-0.4628 2.15 2.5 -0.4128 2.15 2.5 -0.3628 2.15 2.5 
-0.3128 2.15 2.5 0.0372 2.15 2.5 0.0872 2.15 2.5 
0.1372 2.15 2.5 0.1872 2.15 2.5 0.2372 2.15 2.5 
0.2872 2.15 2.5 0.63807 2.15 2.5 0.687963 2.15 2.5 
-2.25794 -0.959931 2.5 -2.214 -0.959908 2.5 -2.16817 -0.960108 2.5 
-2.11896 -0.960224 2.5 -2.06859 -0.960273 2.5 -2.01684 -0.96031 2.5 
-1.96537 -0.960322 2.5 -1.91416 -0.960339 2.5 -1.86345 -0.960343 2.5 
-1.81307 -0.960346 2.5 -1.7629 -0.960347 2.5 -1.71283 -0.960348 2.5 
-1.66281 -0.960348 2.5 -1.6128 -0.960348 2.5 -1.5628 -0.960348 2.5 
-1.5128 -0.960348 2.5 -1.4628 -0.960348 2.5 -1.4128 -0.960348 2.5 
-1.3628 -0.960348 2.5 -1.3128 -0.960348 2.5 -1.2628 -0.960348 2.5 
-1.2128 -0.960348 2.5 -1.1628 -0.960348 2.5 -1.1128 -0.960348 2.5 
-1.0628 -0.960348 2.5 -1.0128 -0.960348 2.5 -0.9628 -0.960348 2.5 
-0.9128 -0.960348 2.5 -0.8628 -0.960348 2.5 -0.8128 -0.960348 2.5 
-0.7628 -0.960348 2.5 -0.7128 -0.960348 2.5 -0.6628 -0.960348 2.5 
-0.6128 -0.960348 2.5 -0.5628 -0.960348 2.5 -0.5128 -0.960348 2.5 
-0.4628 -0.960348 2.5 -0.4128 -0.960348 2.5 -0.3628 -0.960348 2.5 
-0.3128 -0.960348 2.5 -0.2628 -0.960348 2.5 -0.2128 -0.960348 2.5 
-0.1628 -0.960348 2.5 -0.1128 -0.960348 2.5 -0.0627998 -0.960348 2.5 
-0.0127998 -0.960348 2.5 0.0371999 -0.960348 2.5 0.0871999 -0.960348 2.5 
0.1372 -0.960348 2.5 0.1872 -0.960348 2.5 0.2372 -0.960348 2.5 
0.2872 -0.960348 2.5 0.337203 -0.960348 2.5 0.387211 -0.960348 2.5 
0.437234 -0.960349 2.5 0.48729 -0.960349 2.5 0.537412 -0.960351 2.5 
0.587617 -0.960355 2.5 0.637885 -0.960358 2.5 0.687877 -0.960371 2.5 
0.737341 -0.960374 2.5 0.78485 -0.96035 2.5 0.911839 1.78444 2.5 
0.911773 1.73713 2.5 0.913349 1.69029 2.5 0.911558 1.63683 2.5 
0.911901 1.23688 2.5 0.913416 1.19029 2.5 0.911723 1.13674 2.5 
0.872766 1.19029 2.5 0.872282 1.23696 2.5 0.832933 1.19029 2.5 
0.830343 1.23696 2.5 0.785879 1.19029 2.5 0.785441 1.23699 2.5 
0.740814 1.19029 2.5 0.738702 1.23697 2.5 0.691929 1.1903 2.5 
0.690491 1.2369 2.5 0.646362 1.1903 2.5 0.642043 1.2366 2.5 
0.600224 1.19031 2.5 0.592384 1.23556 2.5 0.557667 1.19031 2.5 
0.541179 1.22996 2.5 0.515228 1.19032 2.5 0.4744 1.23663 2.5 
0.443881 1.18231 2.5 0.434489 1.23244 2.5 0.389341 1.1793 2.5 
0.386166 1.2291 2.5 0.33785 1.17741 2.5 0.33634 1.2273 2.5 
0.287328 1.17628 2.5 0.286568 1.22621 2.5 0.237164 1.17564 2.5 
0.236783 1.2256 2.5 0.187139 1.17529 2.5 0.186956 1.22527 2.5 
0.137155 1.17512 2.5 0.137072 1.22511 2.5 0.0871748 1.17505 2.5 
0.0871403 1.22504 2.5 0.0371884 1.17502 2.5 0.0371752 1.22502 2.5 
-0.0128043 1.17501 2.5 -0.0128089 1.225 2.5 -0.0628011 1.175 2.5 
-0.0628026 1.225 2.5 -0.1128 1.175 2.5 -0.1128 1.225 2.5 
-0.1628 1.175 2.5 -0.1628 1.225 2.5 -0.2128 1.175 2.5 
-0.2128 1.225 2.5 -0.2628 1.175 2.5 -0.2628 1.225 2.5 
-0.3128 1.175 2.5 -0.3128 1.225 2.5 -0.3628 1.175 2.5 
-0.3628 1.225 2.5 -0.4128 1.175 2.5 -0.4128 1.225 2.5 
-0.4628 1.175 2.5 -0.4628 1.225 2.5 -0.5128 1.175 2.5 
-0.5128 1.225 2.5 -0.5628 1.175 2.5 -0.5628 1.225 2.5 
-0.6128 1.175 2.5 -0.6128 1.225 2.5 -0.6628 1.175 2.5 
-0.6628 1.225 2.5 -0.7128 1.175 2.5 -0.7128 1.225 2.5 
-0.7628 1.175 2.5 -0.7628 1.225 2.5 -0.8128 1.175 2.5 
-0.8128 1.225 2.5 -0.8628 1.175 2.5 -0.8628 1.225 2.5 
-0.9128 1.175 2.5 -0.9128 1.225 2.5 -0.9628 1.175 2.5 
-0.9628 1.225 2.5 -1.0128 1.175 2.5 -1.0128 1.225 2.5 
-1.0628 1.175 2.5 -1.0628 1.225 2.5 -1.1128 1.175 2.5 
-1.1128 1.225 2.5 -1.1628 1.175 2.5 -1.1628 1.225 2.5 
-1.2128 1.175 2.5 -1.2128 1.225 2.5 -1.2628 1.175 2.5 
-1.2628 1.225 2.5 -1.3128 1.175 2.5 -1.3128 1.225 2.5 
-1.3628 1.175 2.5 -1.3628 1.225 2.5 -1.4128 1.175 2.5 
-1.4128 1.225 2.5 -1.4628 1.175 2.5 -1.4628 1.225 2.5 
-1.5128 1.175 2.5 -1.5128 1.225 2.5 -1.5628 1.175 2.5 
-1.5628 1.225 2.5 -1.6128 1.175 2.5 -1.6128 1.225 2.5 
-1.66281 1.175 2.5 -1.66281 1.225 2.5 -1.71282 1.175 2.5 
-1.71282 1.225 2.5 -1.76287 1.175 2.5 -1.76287 1.225 2.5 
-1.813 1.175 2.5 -1.813 1.225 2.5 -1.86329 1.175 2.5 
-1.86329 1.225 2.5 -1.91389 1.175 2.5 -1.91389 1.225 2.5 
-1.96495 1.175 2.5 -1.96495 1.225 2.5 -2.01649 1.175 2.5 
-2.01649 1.225 2.5 -2.06821 1.175 2.5 -2.06821 1.225 2.5 
-2.11925 1.175 2.5 -2.11925 1.225 2.5 -2.16839 1.175 2.5 
-2.16839 1.225 2.5 -2.2147 1.175 2.5 -2.2147 1.225 2.5 
-2.25821 1.175 2.5 -2.25821 1.225 2.5 -2.25821 1.125 2.5 
-2.25821 1.075 2.5 -2.25821 1.025 2.5 -2.25821 0.975 2.5 
-2.25821 0.925 2.5 -2.25821 0.875 2.5 -2.25821 0.825 2.5 
-2.25821 0.775 2.5 -2.25821 0.725 2.5 -2.25821 0.675 2.5 
-2.25821 0.625 2.5 -2.25821 0.575 2.5 -2.25821 0.525 2.5 
-2.25821 0.475 2.5 -2.25821 0.425 2.5 -2.25821 0.375 2.5 
-2.25821 0.325 2.5 -2.25821 0.275 2.5 -2.25821 0.225 2.5 
-2.25821 0.175 2.5 -2.25821 0.125 2.5 -2.25821 0.0750001 2.5 
-2.25821 0.0249997 2.5 -2.25821 -0.025 2.5 -2.25821 -0.0749999 2.5 
-2.25821 -0.125 2.5 -2.25821 -0.175 2.5 -2.25821 -0.225 2.5 
-2.25821 -0.275 2.5 -2.25821 -0.325001 2.5 -2.25821 -0.375006 2.5 
-2.25821 -0.425023 2.5 -2.25821 -0.47507 2.5 -2.25821 -0.525186 2.5 
-2.25821 -0.57544 2.5 -2.25822 -0.625902 2.5 -2.25822 -0.676636 2.5 
-2.25824 -0.727364 2.5 -2.25824 -0.777924 2.5 -2.25822 -0.826867 2.5 
-2.25813 -0.874151 2.5 -2.25792 -0.918111 2.5 -2.21428 -0.918277 2.5 
-2.21458 -0.874049 2.5 -2.21476 -0.827014 2.5 -2.21479 -0.777807 2.5 
-2.21477 -0.727403 2.5 -2.21474 -0.676623 2.5 -2.21472 -0.625935 2.5 
-2.21471 -0.575471 2.5 -2.21471 -0.525211 2.5 -2.2147 -0.475084 2.5 
-2.2147 -0.425029 2.5 -2.2147 -0.375008 2.5 -2.2147 -0.325001 2.5 
-2.2147 -0.274999 2.5 -2.2147 -0.225 2.5 -2.2147 -0.175 2.5 
-2.2147 -0.125001 2.5 -2.2147 -0.0749992 2.5 -2.2147 -0.0249994 2.5 
[...]
CELL_DATA 4373
SCALARS p float
LOOKUP_TABLE default
-24.2437 -24.2211 -24.2184 -24.525 -24.525 -24.2876 -24.2568 -24.2932 -24.2614 
-24.2815 -24.2733 -24.276 -24.2566 -24.2487 -24.2263 -24.2369 -24.2725 -24.359 
-24.2395 -24.1752 -24.1322 -24.1356 -24.1425 -24.1361 -24.1404 -24.1885 -24.1951 
-24.189 -24.2147 -24.2451 -24.2824 -24.3016 -24.3203 -24.2935 -24.2852 -24.2521 
-24.2263 -24.2381 -24.2781 -24.3181 -24.3343 -24.2964 -24.2867 -24.2875 -24.2651 
-24.2235 -24.2054 -24.2251 -24.2876 -24.2812 -24.2801 -24.2894 -24.2826 -24.3078 
-24.2813 -24.31 -24.2959 -24.3044 -24.2993 -24.0958 -24.1511 -24.1322 -24.0958 
-24.0707 -24.073 -24.0817 -24.0422 -23.9882 -24.0447 -24.0433 -24.042 -24.0243 
-24.0268 -23.994 -24.0234 -23.9829 -23.9967 -24.0022 -24.0138 -24.0362 -24.0158 
-24.009 -24.0343 -23.9923 -23.991 -24.0111 -24.0267 -24.0326 -24.0172 -24.0133 
-24.0403 -24.0402 -24.0263 -23.9934 -23.9847 -24.0076 -23.9631 -24.0368 -24.0439 
-24.0494 -24.0175 -24.0249 -24.0198 -24.0267 -24.0188 -24.0102 -24.0164 -24.0403 
-24.061 -24.0498 -24.0007 -23.996 -24.0292 -24.046 -24.0317 -24.0026 -24.037 
-23.9669 -23.9593 -23.9398 -24.0444 -24.0642 -24.0608 -24.066 -24.0104 -24.0931 
-24.0828 -24.0841 -24.0672 -24.0888 -24.1059 -24.0566 -24.0421 -24.0574 -24.0923 
-24.1277 -24.1048 -24.0704 -24.0793 -24.0258 -24.0396 -24.0331 -24.0714 -24.0866 
-24.086 -24.0832 -24.0696 -24.04 -24.0827 -24.0045 -24.114 -24.0815 -24.0673 
-24.061 -24.0409 -24.0035 -24 -24.0171 -24.0156 -23.969 -23.9869 -24.0531 
-24.1437 -24.0724 -24.0531 -24.0815 -24.0853 -24.0669 -24.0581 -24.062 -24.0627 
-24.0522 -24.0325 -24.0517 -24.0692 -24.0932 -24.0435 -24.0148 -24.0098 -24.0238 
-24.0253 -24.0181 -24.003 -24.0444 -24.0342 -24.1253 -24.1694 -24.1166 -24.1064 
-24.0888 -24.0707 -24.0713 -24.0583 -24.0898 -24.0977 -24.106 -24.1332 -24.1505 
-24.1291 -24.1338 -24.1293 -24.0542 -24.0819 -24.0232 -24.0143 -24.0224 -24.0184 
-24.0171 -24.0125 -24.1175 -24.1078 -24.0898 -24.0624 -24.0376 -24.0979 -24.0659 
-24.1082 -24.1454 -24.1474 -24.1025 -24.0774 -24.0599 -24.1212 -24.1167 -24.1403 
-24.1331 -24.1487 -24.1371 -24.128 -24.132 -24.143 -24.1555 -24.1455 -24.1219 
-24.115 -24.1115 -23.9932 -24.0046 -24.0156 -24.0374 -24.0277 -24.0227 -24.0544 
-24.0603 -24.0526 -24.0578 -24.0646 -24.0713 -24.0097 -24.0343 -24.0856 -24.0614 
-24.04 -24.1377 -24.1212 -24.1134 -24.0987 -24.1357 -24.1774 -24.1512 -24.1019 
-24.0462 -24.0618 -24.0063 -24.0686 -24.0639 -24.0959 -24.118 -24.1046 -24.0528 
-24.0587 -24.0603 -24.0568 -24.093 -24.1073 -24.1343 -24.1395 -24.1164 -24.0274 
-24.0001 -24.0121 -24.0008 -23.9732 -24.0411 -24.1129 -24.1187 -24.0428 -24.0056 
-24.064 -24.1278 -24.0795 -24.0706 -24.0537 -24.0638 -24.0522 -24.0889 -24.1036 
-24.0756 -24.068 -24.0561 -24.0512 -24.0314 -24.1179 -24.1241 -24.0629 -23.9794 
-23.9707 -23.9445 -24.0217 -24.0505 -24.1003 -24.0883 -24.0678 -24.0542 -24.0819 
-24.1277 -24.0797 -24.0746 -24.0654 -24.0658 -24.1091 -24.1515 -24.1271 -24.1177 
-24.0831 -24.0751 -24.1037 -24.1011 -24.0471 -24.0788 -24.1059 -24.0995 -24.1026 
-24.1279 -24.1092 -24.1026 -24.1134 -24.1455 -24.1458 -24.1087 -24.0925 -24.091 
-24.0401 -24.0097 -24.0344 -24.1042 -24.1987 -24.1847 -24.1167 -24.0992 -24.0999 
-24.0999 -24.0999 -24.0998 -24.0997 -24.0997 -24.0997 -24.0998 -24.0999 -24.1 
-24.1002 -24.1004 -24.1006 -24.1009 -24.1012 -24.1016 -24.1019 -24.1022 -24.1026 
-24.1032 -24.1038 -24.1048 -24.106 -24.1074 -24.1215 -24.1909 -24.1605 -24.0702 
-24.0117 -24.0336 -24.084 -24.1138 -24.1071 -24.1105 -24.1212 -24.135 -24.1529 
-24.2326 -24.1803 -24.0135 -24.0217 -24.0163 -24.028 -24.0256 -24.0205 -23.9954 
-23.987 -23.971 -24.0202 -24.046 -24.1235 -24.0204 -24.0609 -24.0812 -24.0317 
-24.0236 -24.0331 -24.0682 -24.0884 -24.0867 -24.113 -24.1409 -24.062 -24.0925 
-24.0742 -24.0926 -24.0644 -24.0667 -24.1002 -24.0608 -24.0827 -24.0314 -24.0328 
-24.0333 -24.0017 -24.0412 -24.0495 -23.9607 -23.9759 -24.0657 -24.0494 -24.0895 
-24.1161 -24.1998 -24.1281 -24.1429 -24.1143 -24.1385 -24.1334 -24.1752 -24.2072 
-24.0477 -24.1166 -24.1694 -24.2195 -24.2091 -24.1727 -24.1212 -24.1224 -24.124 
-24.1493 -24.0801 -24.0416 -24.0652 -24.1201 -24.1615 -24.1375 -24.0518 -24.071 
-24.069 -24.1447 -24.2305 -24.2124 -24.2045 -24.2164 -24.2185 -24.2143 -24.1405 
-24.0833 -24.1737 -24.1943 -24.1781 -24.1976 -24.231 -24.2262 -24.1925 -24.2318 
-24.17 -24.1607 -24.1335 -24.1133 -24.0994 -24.0911 -24.0709 -24.0865 -24.1124 
-24.1727 -24.1743 -24.1505 -24.1072 -24.1066 -24.1057 -24.1046 -24.1035 -24.1028 
-24.1022 -24.1019 -24.1016 -24.1012 -24.1009 -24.1006 -24.1004 -24.1001 -24.0999 
-24.0997 -24.0996 -24.0995 -24.0994 -24.0994 -24.0994 -24.0994 -24.0994 -24.0994 
-24.0994 -24.0999 -24.1065 -24.1372 -24.1862 -24.1515 -24.1367 -24.1007 -24.1185 
-24.1225 -24.0745 -24.0804 -24.1174 -24.1204 -24.0882 -24.0821 -24.1164 -24.1353 
-24.1318 -24.0961 -24.0266 -24.0456 -24.0954 -24.1263 -24.11 -24.101 -24.0872 
-24.1152 -24.1318 -24.1189 -24.0826 -24.0277 -24.0216 -24.1166 -24.1876 -24.1405 
-24.0606 -24.0524 -24.075 -24.073 -24.0402 -24.032 -24.1082 -24.1941 -24.1827 
-24.1854 -24.1361 -24.13 -24.1019 -24.0991 -24.0988 -24.0989 -24.0989 -24.099 
-24.099 -24.099 -24.099 -24.0991 -24.0991 -24.0993 -24.0994 -24.0996 -24.0998 
-24.1 -24.1003 -24.1006 -24.1009 -24.1012 -24.1015 -24.1019 -24.1024 -24.103 
-24.1041 -24.1053 -24.1065 -24.1068 -24.1253 -24.1839 -24.2072 -24.1448 -24.0524 
-24.0478 -24.0738 -24.093 -24.12 -24.1503 -24.1698 -24.1704 -24.1874 -24.2236 
-24.1809 -24.1789 -24.1615 -24.1334 -24.1051 -24.0694 -24.017 -23.9804 -24.0613 
-24.1706 -24.1767 -24.1243 -24.1041 -24.105 -24.1047 -24.1037 -24.1026 -24.102 
-24.1015 -24.1012 -24.1009 -24.1006 -24.1003 -24.1 -24.0997 -24.0995 -24.0993 
-24.0991 -24.0989 -24.0988 -24.0987 -24.0987 -24.0986 -24.0986 -24.0986 -24.0985 
-24.0985 -24.0984 -24.0985 -24.0987 -24.101 -24.1113 -24.1633 -24.1724 -24.1848 
-24.0971 -24.046 -23.9988 -24.0135 -24.012 -24.0002 -24.0675 -24.1814 -24.1402 
-24.0265 -24.007 -24.0572 -24.1003 -24.1213 -24.1272 -24.11 -24.0761 -24.056 
-24.0897 -24.105 -24.1175 -24.1251 -24.0902 -24.021 -23.9794 -24.0469 -24.1779 
-24.1407 -24.0266 -23.9884 -23.9904 -23.9997 -24.0933 -24.1137 -24.1253 -24.1016 
-24.1001 -24.0981 -24.0983 -24.0981 -24.0981 -24.0981 -24.0981 -24.0981 -24.0982 
-24.0982 -24.0982 -24.0983 -24.0984 -24.0985 -24.0986 -24.0988 -24.0989 -24.0992 
-24.0994 -24.0997 -24.0999 -24.1002 -24.1005 -24.1008 -24.1011 -24.1016 -24.1021 
-24.1031 -24.1038 -24.1035 -24.1061 -24.1555 -24.1788 -24.1217 -24.0387 -23.9696 
-23.9999 -24.0773 -24.1228 -24.137 -24.1593 -24.1717 -24.1802 -24.2259 -24.2307 
-24.1688 -24.1655 -24.1476 -24.1329 -24.1135 -24.0605 -23.986 -23.9536 -24.0134 
-24.1162 -24.201 -24.1794 -24.1114 -24.1021 -24.1029 -24.1026 -24.1017 -24.1011 
-24.1007 -24.1004 -24.1001 -24.0998 -24.0996 -24.0993 -24.099 -24.0988 -24.0986 
-24.0984 -24.0983 -24.0981 -24.098 -24.098 -24.0979 -24.0978 -24.0978 -24.0978 
-24.0978 -24.0978 -24.0978 -24.0978 -24.0979 -24.098 -24.0981 -24.0982 -24.1022 
-24.1197 -24.1334 -24.0597 -24.0623 -24.079 -24.1692 -24.2049 -24.0911 -23.9816 
-23.9719 -24.0478 -24.1292 -24.1386 -24.1039 -24.0699 -24.0411 -24.0049 -24.0566 
-24.1162 -24.1613 -24.1591 -24.0554 -23.967 -23.9546 -24.0383 -24.1407 -24.1637 
-24.1117 -24.1336 -24.1547 -24.1686 -24.1278 -24.0997 -24.0982 -24.098 -24.0978 
-24.0977 -24.0976 -24.0975 -24.0974 -24.0974 -24.0974 -24.0974 -24.0975 -24.0975 
-24.0976 -24.0977 -24.0978 -24.0979 -24.0981 -24.0983 -24.0985 -24.0987 -24.0989 
-24.0992 -24.0995 -24.0997 -24.1 -24.1003 -24.1007 -24.1012 -24.102 -24.1019 
-24.1011 -24.1005 -24.0996 -24.0897 -24.116 -24.0302 -23.9104 -23.943 -24.0619 
-24.135 -24.1447 -24.1569 -24.1721 -24.1728 -24.2617 -24.218 -24.21 -24.1926 
-24.1869 -24.1665 -24.1636 -24.093 -23.9536 -23.9229 -24.0186 -24.14 -24.1948 
-24.1285 -24.1017 -24.1012 -24.1019 -24.1016 -24.1008 -24.1002 -24.0999 -24.0996 
-24.0993 -24.0991 -24.0988 -24.0986 -24.0983 -24.0981 -24.0979 -24.0977 -24.0976 
-24.0974 -24.0973 -24.0972 -24.0972 -24.0971 -24.0971 -24.0971 -24.0971 -24.0971 
-24.0972 -24.0973 -24.0974 -24.0976 -24.0978 -24.0984 -24.1007 -24.1179 -24.1538 
-24.1792 -24.1299 -24.1052 -24.1056 -24.1176 -24.0341 -23.9561 -23.956 -24.0101 
-24.1213 -24.1843 -24.1513 -24.0803 -24.0136 -24.0397 -24.0888 -24.148 -24.1367 
-24.0893 -23.9985 -23.9364 -23.9521 -23.9973 -24.0314 -24.0808 -24.1026 -24.1037 
-24.1221 -24.105 -24.1011 -24.099 -24.098 -24.0976 -24.0973 -24.0971 -24.097 
-24.0969 -24.0968 -24.0967 -24.0967 -24.0967 -24.0967 -24.0968 -24.0969 -24.097 
-24.0971 -24.0972 -24.0974 -24.0975 -24.0977 -24.0979 -24.0982 -24.0984 -24.0987 
-24.0989 -24.0992 -24.0994 -24.0998 -24.1002 -24.1011 -24.1018 -24.1021 -24.1043 
-24.133 -24.1701 -24.1206 -24.0864 -24.0405 -24.0619 -24.1254 -24.1598 -24.1714 
-24.2016 -24.2075 -24.1514 -24.1768 -24.2492 -24.1759 -24.1923 -24.1811 -24.1504 
-24.1263 -24.1081 -24.1105 -24.135 -24.154 -24.1223 -24.149 -24.1074 -24.1023 
-24.1021 -24.1012 -24.1004 -24.0996 -24.0992 -24.099 -24.0987 -24.0985 -24.0982 
-24.098 -24.0978 -24.0975 -24.0973 -24.0971 -24.097 -24.0968 -24.0967 -24.0966 
-24.0965 -24.0964 -24.0964 -24.0963 -24.0963 -24.0964 -24.0964 -24.0965 -24.0966 
-24.0968 -24.097 -24.0973 -24.0977 -24.0982 -24.0988 -24.0995 -24.1005 -24.0978 
-24.1362 -24.1173 -24.0642 -24.0437 -23.9738 -23.9714 -24.0338 -24.1278 -24.1039 
-24.0995 -24.0903 -24.078 -24.0599 -24.0906 -24.1039 -24.1155 -24.1656 -24.0931 
-24.007 -23.9579 -23.9904 -24.0962 -24.1702 -24.1831 -24.1023 -24.0983 -24.0984 
-24.0982 -24.0978 -24.0973 -24.0969 -24.0966 -24.0964 -24.0962 -24.0961 -24.096 
-24.096 -24.096 -24.096 -24.096 -24.096 -24.0961 -24.0962 -24.0963 -24.0964 
-24.0966 -24.0968 -24.0969 -24.0971 -24.0973 -24.0976 -24.0978 -24.098 -24.0983 
-24.0985 -24.0987 -24.099 -24.0996 -24.1003 -24.1014 -24.1025 -24.1045 -24.1175 
-24.1094 -24.1174 -24.1155 -24.1077 -24.1069 -24.1248 -24.1564 -24.1924 -24.1925 
-24.1805 -24.2382 -24.2232 -24.1819 -24.1839 -24.1823 -24.1683 -24.1192 -24.1011 
-24.1012 -24.0964 -24.0968 -24.0975 -24.1008 -24.1017 -24.1011 -24.1003 -24.0994 
-24.0988 -24.0984 -24.0982 -24.098 -24.0978 -24.0976 -24.0974 -24.0971 -24.0969 
-24.0967 -24.0965 -24.0964 -24.0962 -24.0961 -24.0959 -24.0958 -24.0957 -24.0957 
-24.0956 -24.0956 -24.0956 -24.0956 -24.0957 -24.0958 -24.0959 -24.0961 -24.0963 
-24.0965 -24.0969 -24.0973 -24.0977 -24.0977 -24.0972 -24.0973 -24.1137 -24.0895 
-24.0256 -23.9954 -24.0025 -24.0421 -24.1028 -24.226 -24.1715 -24.1298 -24.1123 
-24.0699 -24.0668 -24.1088 -24.1476 -24.2141 -24.2262 -24.1375 -24.0759 -24.0045 
-23.9759 -24.0148 -24.1261 -24.1616 -24.1047 -24.0969 -24.0972 -24.0971 -24.0968 
-24.0965 -24.0962 -24.0959 -24.0957 -24.0956 -24.0954 -24.0953 -24.0953 -24.0953 
-24.0953 -24.0953 -24.0954 -24.0954 -24.0955 -24.0956 -24.0958 -24.0959 -24.096 
-24.0962 -24.0964 -24.0966 -24.0968 -24.097 -24.0972 -24.0974 -24.0976 -24.0978 
-24.098 -24.0982 -24.0986 -24.0993 -24.0996 -24.0995 -24.0981 -24.0977 -24.1035 
-24.1173 -24.1364 -24.1199 -24.1282 -24.1624 -24.163 -24.1879 -24.204 -24.2436 
-24.2293 -24.205 -24.1813 -24.1515 -24.1306 -24.1261 -24.1285 -24.1446 -24.1594 
-24.1403 -24.1052 -24.0982 -24.0978 -24.0985 -24.0987 -24.0982 -24.0978 -24.0976 
-24.0974 -24.0972 -24.097 -24.0968 -24.0966 -24.0964 -24.0962 -24.096 -24.0958 
-24.0956 -24.0955 -24.0954 -24.0952 -24.0951 -24.0951 -24.095 -24.0949 -24.0949 
-24.0949 -24.0949 -24.095 -24.0951 -24.0952 -24.0953 -24.0955 -24.0958 -24.096 
-24.0963 -24.0966 -24.0969 -24.098 -24.1326 -24.1765 -24.1138 -24.0044 -23.9484 
-23.9907 -24.0781 -24.1499 -24.2062 -24.1701 -24.1174 -24.0601 -24.0134 -23.9593 
-24.0231 -24.0877 -24.1232 -24.1588 -24.0623 -24.0108 -23.9704 -23.9864 -24.0787 
-24.1762 -24.2051 -24.1452 -24.1001 -24.0968 -24.0961 -24.0958 -24.0955 -24.0953 
-24.095 -24.0949 -24.0947 -24.0946 -24.0945 -24.0945 -24.0945 -24.0945 -24.0945 
-24.0946 -24.0946 -24.0947 -24.0948 -24.0949 -24.0951 -24.0952 -24.0954 -24.0955 
-24.0957 -24.0959 -24.0961 -24.0963 -24.0965 -24.0967 -24.0969 -24.0971 -24.0974 
-24.098 -24.0984 -24.0976 -24.0974 -24.1003 -24.1238 -24.1638 -24.1431 -24.0919 
-24.0992 -24.1113 -24.1231 -24.1465 -24.171 -24.1873 -24.2015 -24.1988 -24.1687 
-24.1624 -24.1363 -24.1091 -24.087 -24.0588 -24.0317 -24.0718 -24.1651 -24.1558 
-24.1088 -24.0971 -24.097 -24.0978 -24.0976 -24.097 -24.0967 -24.0965 -24.0963 
-24.0961 -24.0959 -24.0957 -24.0955 -24.0953 -24.0952 -24.095 -24.0948 -24.0947 
-24.0946 -24.0944 -24.0943 -24.0943 -24.0942 -24.0941 -24.0941 -24.0941 -24.0941 
-24.0941 -24.0942 -24.0943 -24.0944 -24.0945 -24.0947 -24.095 -24.0953 -24.0962 
-24.099 -24.1067 -24.1227 -24.1465 -24.2086 -24.1623 -24.0455 -23.9956 -24.03 
-24.0526 -24.1338 -24.1284 -24.0943 -24.0502 -23.9968 -24.0182 -24.0316 -24.0874 
-24.1619 -24.1267 -24.0643 -24.0583 -24.0778 -24.1125 -24.152 -24.1274 -24.1387 
-24.1008 -24.0978 -24.097 -24.0955 -24.0947 -24.0944 -24.0942 -24.0941 -24.0939 
-24.0938 -24.0938 -24.0937 -24.0937 -24.0937 -24.0937 -24.0937 -24.0938 -24.0939 
-24.0939 -24.094 -24.0942 -24.0943 -24.0944 -24.0946 -24.0948 -24.0949 -24.0951 
-24.0953 -24.0955 -24.0957 -24.0959 -24.0961 -24.0963 -24.0966 -24.0972 -24.0972 
-24.0965 -24.098 -24.1287 -24.165 -24.1129 -24.0372 -24.0315 -24.0737 -24.1058 
-24.1238 -24.1413 -24.1741 -24.2429 -24.2275 -24.1365 -24.2209 -24.1835 -24.1745 
-24.1334 -24.1199 -24.1026 -24.0645 -24.0396 -24.081 -24.1341 -24.1321 -24.0994 
-24.0962 -24.0967 -24.0967 -24.0961 -24.0958 -24.0956 -24.0955 -24.0953 -24.0951 
-24.0949 -24.0947 -24.0945 -24.0944 -24.0942 -24.0941 -24.0939 -24.0938 -24.0937 
-24.0936 -24.0935 -24.0934 -24.0933 -24.0933 -24.0933 -24.0933 -24.0933 -24.0934 
-24.0934 -24.0935 -24.0936 -24.0937 -24.0939 -24.0941 -24.0945 -24.0951 -24.0952 
-24.1103 -24.1975 -24.204 -24.1303 -24.0897 -24.0479 -24.0204 -24.032 -24.1227 
-24.2065 -24.1322 -24.0032 -23.993 -24.0039 -24.0256 -24.1774 -24.1733 -24.1032 
-24.0387 -24.0211 -23.9887 -23.9684 -24.0465 -24.169 -24.1846 -24.1153 -24.0949 
-24.0946 -24.0939 -24.0936 -24.0934 -24.0933 -24.0932 -24.0931 -24.093 -24.0929 
-24.0929 -24.0929 -24.0929 -24.0929 -24.093 -24.093 -24.0931 -24.0932 -24.0933 
-24.0934 -24.0935 -24.0937 -24.0938 -24.094 -24.0941 -24.0943 -24.0945 -24.0947 
-24.0949 -24.095 -24.0952 -24.0954 -24.0956 -24.0962 -24.0965 -24.0965 -24.1053 
-24.1447 -24.1447 -24.0942 -24.0724 -24.0925 -24.1121 -24.1273 -24.142 -24.1606 
-24.1355 -24.207 -24.1235 -24.0926 -24.1384 -24.1423 -24.1703 -24.1442 -24.1172 
-24.1168 -24.1226 -24.1319 -24.163 -24.1703 -24.1284 -24.0982 -24.0956 -24.096 
-24.0956 -24.0951 -24.0949 -24.0948 -24.0946 -24.0944 -24.0943 -24.0941 -24.0939 
-24.0937 -24.0936 -24.0934 -24.0933 -24.0931 -24.093 -24.0929 -24.0928 -24.0927 
-24.0926 -24.0926 -24.0925 -24.0925 -24.0925 -24.0925 -24.0925 -24.0926 -24.0927 
-24.0927 -24.0929 -24.093 -24.0932 -24.0934 -24.094 -24.0953 -24.1023 -24.1808 
-24.1744 -24.0722 -23.9981 -23.9872 -24.0321 -24.1085 -24.1623 -24.2137 -24.2042 
-24.1082 -24.0639 -24.0867 -24.109 -24.209 -24.214 -24.1789 -24.0826 -24.003 
-24.0534 -24.1156 -24.1509 -24.1548 -24.1229 -24.0942 -24.0934 -24.0932 -24.0929 
-24.0927 -24.0926 -24.0924 -24.0923 -24.0922 -24.0922 -24.0921 -24.0921 -24.0921 
-24.0921 -24.0921 -24.0922 -24.0923 -24.0923 -24.0924 -24.0925 -24.0926 -24.0928 
-24.0929 -24.093 -24.0932 -24.0933 -24.0935 -24.0937 -24.0939 -24.094 -24.0942 
-24.0944 -24.0945 -24.0947 -24.095 -24.0951 -24.0948 -24.0969 -24.1352 -24.1856 
-24.1627 -24.0682 -24.0427 -24.063 -24.0993 -24.1341 -24.1531 -24.2425 -24.2033 
-24.1927 -24.2715 -24.2278 -24.1738 -24.1407 -24.1275 -24.1142 -24.06 -24.0019 
-24.0017 -24.0998 -24.1964 -24.1702 -24.0992 -24.0943 -24.0945 -24.0944 -24.0943 
-24.0941 -24.094 -24.0938 -24.0936 -24.0935 -24.0933 -24.0931 -24.093 -24.0928 
-24.0927 -24.0925 -24.0924 -24.0923 -24.0921 -24.0921 -24.092 -24.0919 -24.0918 
-24.0918 -24.0917 -24.0917 -24.0917 -24.0917 -24.0918 -24.0918 -24.0919 -24.092 
-24.0921 -24.0923 -24.0925 -24.0929 -24.0941 -24.1017 -24.1406 -24.1569 -24.1474 
-24.0809 -24.0225 -23.9996 -24.0772 -24.1708 -24.2038 -24.1789 -24.1386 -24.0909 
-24.0468 -24.0867 -24.1228 -24.1468 -24.1498 -24.0664 -24.0106 -23.9833 -24.0451 
-24.139 -24.1837 -24.1421 -24.0983 -24.0938 -24.0925 -24.0921 -24.0919 -24.0917 
-24.0916 -24.0915 -24.0914 -24.0914 -24.0913 -24.0913 -24.0913 -24.0913 -24.0914 
-24.0914 -24.0915 -24.0916 -24.0917 -24.0918 -24.0919 -24.092 -24.0921 -24.0923 
-24.0924 -24.0926 -24.0927 -24.0929 -24.0931 -24.0933 -24.0934 -24.0936 -24.0937 
-24.0939 -24.094 -24.094 -24.0947 -24.1096 -24.1632 -24.1569 -24.0262 -23.9878 
-24.0345 -24.066 -24.1015 -24.1285 -24.1542 -24.19 -24.2468 -24.2484 -24.1678 
-24.254 -24.2317 -24.1534 -24.1336 -24.1119 -24.0804 -24.0505 -23.9924 -23.9975 
-24.09 -24.1829 -24.1409 -24.0961 -24.0935 -24.0936 -24.0935 -24.0934 -24.0932 
-24.0931 -24.0929 -24.0927 -24.0925 -24.0924 -24.0922 -24.0921 -24.0919 -24.0918 
-24.0916 -24.0915 -24.0914 -24.0913 -24.0912 -24.0911 -24.0911 -24.091 -24.091 
-24.0909 -24.0909 -24.0909 -24.0909 -24.091 -24.0911 -24.0912 -24.0913 -24.0915 
-24.0918 -24.0921 -24.0926 -24.0959 -24.1721 -24.1728 -24.0761 -24.012 -23.9845 
-23.9873 -24.0314 -24.1281 -24.0876 -24.0581 -24.0133 -23.9743 -24.0139 -24.053 
-24.0717 -24.0908 -24.1535 -24.0319 -23.9927 -24.0213 -24.0345 -24.0781 -24.1698 
-24.1596 -24.0912 -24.0921 -24.0918 -24.0914 -24.0911 -24.0909 -24.0907 -24.0906 
-24.0906 -24.0905 -24.0905 -24.0905 -24.0906 -24.0906 -24.0906 -24.0907 -24.0908 
-24.0908 -24.0909 -24.091 -24.0911 -24.0913 -24.0914 -24.0915 -24.0917 -24.0918 
-24.092 -24.0922 -24.0923 -24.0925 -24.0927 -24.0929 -24.093 -24.0931 -24.0932 
-24.0934 -24.101 -24.1664 -24.1839 -24.1009 -24.0126 -24.0177 -24.05 -24.087 
-24.1189 -24.1334 -24.1594 -24.1776 -24.1762 -24.0784 -24.1095 -24.1439 -24.1933 
-24.1915 -24.1216 -24.1059 -24.0801 -24.0452 -24.0051 -24.0044 -24.0772 -24.1326 
-24.1149 -24.0934 -24.0925 -24.0928 -24.0928 -24.0927 -24.0925 -24.0923 -24.0921 
-24.092 -24.0918 -24.0916 -24.0915 -24.0913 -24.0912 -24.091 -24.0909 -24.0908 
-24.0907 -24.0906 -24.0905 -24.0904 -24.0903 -24.0903 -24.0902 -24.0902 -24.0901 
-24.0901 -24.0901 -24.0901 -24.0902 -24.0903 -24.0904 -24.0907 -24.091 -24.0914 
-24.0918 -24.0916 -24.1606 -24.1895 -24.105 -24.0436 -24.0122 -23.999 -24.0806 
-24.1753 -24.1201 -24.0745 -24.0644 -24.0252 -24.0735 -24.0862 -24.0994 -24.2045 
-24.1565 -24.0237 -23.9922 -23.9943 -24.0273 -24.0771 -24.1298 -24.1116 -24.0925 
-24.0915 -24.0909 -24.0905 -24.0902 -24.0899 -24.0898 -24.0897 -24.0896 -24.0896 
-24.0897 -24.0898 -24.0898 -24.0899 -24.0899 -24.09 -24.09 -24.0901 -24.0902 
-24.0903 -24.0904 -24.0905 -24.0906 -24.0908 -24.0909 -24.0911 -24.0912 -24.0914 
-24.0916 -24.0918 -24.092 -24.0922 -24.0923 -24.0924 -24.0924 -24.092 -24.0906 
-24.0939 -24.1346 -24.1448 -24.0342 -23.9896 -24.0345 -24.0723 -24.0892 -24.1088 
-24.1358 -24.163 -24.1854 -24.2004 -24.1894 -24.1658 -24.1626 -24.1429 -24.1204 
-24.0865 -24.0525 -24.0286 -24.0217 -24.0426 -24.075 -24.086 -24.0893 -24.0912 
-24.0919 -24.0921 -24.0921 -24.092 -24.0918 -24.0916 -24.0914 -24.0912 -24.091 
-24.0909 -24.0907 -24.0906 -24.0904 -24.0903 -24.0901 -24.09 -24.0899 -24.0898 
-24.0897 -24.0896 -24.0896 -24.0895 -24.0895 -24.0896 -24.0898 -24.0893 -24.0891 
-24.0891 -24.0891 -24.0892 -24.0894 -24.0896 -24.0899 -24.0904 -24.0909 -24.0919 
-24.112 -24.1431 -24.1271 -24.0856 -24.0231 -24.0231 -24.0874 -24.1768 -24.2316 
-24.1453 -24.1082 -24.0717 -24.0896 -24.1217 -24.1476 -24.1946 -24.1962 -24.1189 
-24.0547 -24.0266 -24.0595 -24.0955 -24.1472 -24.1312 -24.0915 -24.0905 -24.0898 
-24.0893 -24.0889 -24.0887 -24.0885 -24.0885 -24.0886 -24.0887 -24.0895 -24.0914 
-24.0901 -24.0893 -24.0891 -24.0892 -24.0892 -24.0893 -24.0894 -24.0895 -24.0896 
-24.0897 -24.0899 -24.09 -24.0902 -24.0903 -24.0905 -24.0906 -24.0908 -24.091 
-24.0913 -24.0916 -24.0919 -24.0918 -24.0919 -24.0918 -24.0914 -24.0905 -24.0861 
-24.1189 -24.1158 -24.0727 -24.0676 -24.0865 -24.1147 -24.136 -24.1513 -24.1639 