# vtk DataFile Version 5.1
vtk output
ASCII
DATASET POLYDATA
POINTS 2345 float
0.95 -0.51025 0.5 0.95 -0.463722 0.5 0.95 -0.416907 0.5 
0.95 -0.369582 0.5 0.95 -0.321637 0.5 0.95 -0.273087 0.5 
0.95 -0.224038 0.5 0.95 -0.174655 0.5 0.95 -0.12512 0.5 
0.95 -0.075613 0.5 0.95 -0.0262974 0.5 0.95 0.0226905 0.5 
0.95 0.0712621 0.5 0.95 0.1194 0.5 0.95 0.167177 0.5 
0.95 0.21475 0.5 -2.25821 -1 0.5 -2.2147 -1 0.5 
-2.1684 -1 0.5 -2.11928 -1 0.5 -2.06824 -1 0.5 
-2.01652 -1 0.5 -1.96497 -1 0.5 -1.91391 -1 0.5 
-1.8633 -1 0.5 -1.813 -1 0.5 -1.76287 -1 0.5 
-1.71282 -1 0.5 -1.66281 -1 0.5 -1.6128 -1 0.5 
-1.5628 -1 0.5 -1.5128 -1 0.5 -1.4628 -1 0.5 
-1.4128 -1 0.5 -1.3628 -1 0.5 -1.3128 -1 0.5 
-1.2628 -1 0.5 -1.2128 -1 0.5 -1.1628 -1 0.5 
-1.1128 -1 0.5 -1.0628 -1 0.5 -1.0128 -1 0.5 
-0.9628 -1 0.5 -0.9128 -1 0.5 -0.8628 -1 0.5 
-0.8128 -1 0.5 -0.7628 -1 0.5 -0.7128 -1 0.5 
-0.6628 -1 0.5 -0.6128 -1 0.5 -0.5628 -1 0.5 
-0.5128 -1 0.5 -0.4628 -1 0.5 -0.4128 -1 0.5 
-0.3628 -1 0.5 -0.3128 -1 0.5 -0.2628 -1 0.5 
-0.2128 -1 0.5 -0.1628 -1 0.5 -0.1128 -1 0.5 
-0.0627998 -1 0.5 -0.0128002 -1 0.5 0.0371998 -1 0.5 
0.0872002 -1 0.5 0.1372 -1 0.5 0.1872 -1 0.5 
0.2372 -1 0.5 0.2872 -1 0.5 0.337202 -1 0.5 
0.387208 -1 0.5 0.437226 -1 0.5 0.487272 -1 0.5 
0.537377 -1 0.5 0.587572 -1 0.5 0.637847 -1 0.5 
0.688022 -1 0.5 0.737579 -1 0.5 0.785594 -1 0.5 
0.831004 -1 0.5 0.87319 -1 0.5 0.912453 -1 0.5 
-2.3 -1 0.5 0.95 -1 0.5 -2.3 -0.918976 0.5 
-2.3 -0.960345 0.5 -2.3 -0.874743 0.5 -2.3 -0.827478 0.5 
-2.3 -0.777949 0.5 -2.3 -0.7273 0.5 -2.3 -0.676424 0.5 
-2.3 -0.625747 0.5 -2.3 -0.575342 0.5 -2.3 -0.525139 0.5 
-2.3 -0.47505 0.5 -2.3 -0.425016 0.5 -2.3 -0.375004 0.5 
-2.3 -0.325001 0.5 -2.3 -0.275 0.5 -2.3 -0.225 0.5 
-2.3 -0.175 0.5 -2.3 -0.125 0.5 -2.3 -0.0749999 0.5 
-2.3 -0.0249999 0.5 -2.3 0.0249998 0.5 -2.3 0.0749998 0.5 
-2.3 0.125 0.5 -2.3 0.175 0.5 -2.3 0.225 0.5 
-2.3 0.275 0.5 -2.3 0.325 0.5 -2.3 0.375 0.5 
-2.3 0.425 0.5 -2.3 0.475 0.5 -2.3 0.525001 0.5 
-2.3 0.575002 0.5 -2.3 0.625004 0.5 -2.3 0.675007 0.5 
-2.3 0.725014 0.5 -2.3 0.775023 0.5 -2.3 0.825035 0.5 
-2.3 0.875048 0.5 -2.3 0.925059 0.5 -2.3 0.975066 0.5 
-2.3 1.02507 0.5 -2.3 1.07506 0.5 -2.3 1.12505 0.5 
-2.3 1.17504 0.5 -2.3 1.22503 0.5 -2.3 1.27501 0.5 
-2.3 1.325 0.5 -2.3 1.37498 0.5 -2.3 1.42497 0.5 
-2.3 1.47495 0.5 -2.3 1.52495 0.5 -2.3 1.57495 0.5 
-2.3 1.62499 0.5 -2.3 1.67508 0.5 -2.3 1.7253 0.5 
-2.3 1.77572 0.5 -2.3 1.82641 0.5 -2.3 1.87729 0.5 
-2.3 1.92794 0.5 -2.3 1.97748 0.5 -2.3 2.02474 0.5 
-2.3 2.06898 0.5 -2.3 2.11034 0.5 -2.3 2.15 0.5 
0.95 -0.960269 0.5 0.95 -0.91877 0.5 0.95 -0.874276 0.5 
0.95 -0.826507 0.5 0.95 -0.776091 0.5 0.95 -0.724027 0.5 
0.95 -0.671107 0.5 0.95 -0.617735 0.5 0.95 -0.564075 0.5 
0.95 0.267197 0.5 0.95 0.319429 0.5 0.95 0.371289 0.5 
0.95 0.422705 0.5 0.95 0.473687 0.5 0.95 0.524308 0.5 
0.95 0.574665 0.5 0.95 0.624852 0.5 0.95 0.674939 0.5 
0.95 0.724976 0.5 0.95 0.77499 0.5 0.95 0.824997 0.5 
0.95 0.875005 0.5 0.95 0.925019 0.5 0.95 0.975044 0.5 
0.95 1.02508 0.5 0.95 1.07512 0.5 0.95 1.12516 0.5 
0.95 1.17518 0.5 0.95 1.22518 0.5 0.95 1.27515 0.5 
0.95 1.32512 0.5 0.95 1.37508 0.5 0.95 1.42505 0.5 
0.95 1.47503 0.5 0.95 1.52502 0.5 0.95 1.57502 0.5 
0.95 1.62505 0.5 0.95 1.67514 0.5 0.95 1.72534 0.5 
0.95 1.77575 0.5 0.95 1.82642 0.5 0.95 1.8773 0.5 
0.95 1.92795 0.5 0.95 1.97748 0.5 0.95 2.02474 0.5 
0.95 2.06898 0.5 0.95 2.11034 0.5 0.95 2.15 0.5 
-2.2147 2.15 0.5 -2.25821 2.15 0.5 -2.1684 2.15 0.5 
-2.11928 2.15 0.5 -2.06824 2.15 0.5 -2.01652 2.15 0.5 
-1.96497 2.15 0.5 -1.91391 2.15 0.5 -1.8633 2.15 0.5 
-1.813 2.15 0.5 -1.76287 2.15 0.5 -1.71282 2.15 0.5 
-1.66281 2.15 0.5 -1.6128 2.15 0.5 -1.5628 2.15 0.5 
-1.5128 2.15 0.5 -1.4628 2.15 0.5 -1.4128 2.15 0.5 
-1.3628 2.15 0.5 -1.3128 2.15 0.5 -1.2628 2.15 0.5 
-1.2128 2.15 0.5 -1.1628 2.15 0.5 -1.1128 2.15 0.5 
-1.0628 2.15 0.5 -1.0128 2.15 0.5 -0.9628 2.15 0.5 
-0.9128 2.15 0.5 -0.8628 2.15 0.5 -0.8128 2.15 0.5 
-0.7628 2.15 0.5 -0.7128 2.15 0.5 -0.6628 2.15 0.5 
-0.6128 2.15 0.5 -0.5628 2.15 0.5 -0.5128 2.15 0.5 
-0.4628 2.15 0.5 -0.4128 2.15 0.5 -0.3628 2.15 0.5 
-0.3128 2.15 0.5 -0.2628 2.15 0.5 -0.2128 2.15 0.5 
-0.1628 2.15 0.5 -0.1128 2.15 0.5 -0.0627998 2.15 0.5 
-0.0128002 2.15 0.5 0.0371998 2.15 0.5 0.0872001 2.15 0.5 
0.1372 2.15 0.5 0.1872 2.15 0.5 0.2372 2.15 0.5 
0.2872 2.15 0.5 0.337202 2.15 0.5 0.387208 2.15 0.5 
0.437226 2.15 0.5 0.487272 2.15 0.5 0.537377 2.15 0.5 
0.587572 2.15 0.5 0.637847 2.15 0.5 0.688022 2.15 0.5 
0.737579 2.15 0.5 0.785594 2.15 0.5 0.831004 2.15 0.5 
0.87319 2.15 0.5 0.912453 2.15 0.5 -2.25805 -0.960684 0.5 
0.9135 -0.960848 0.5 0.913492 2.11091 0.5 0.874406 -0.961295 0.5 
0.831615 -0.961336 0.5 0.785483 -0.961253 0.5 0.737109 -0.961229 0.5 
0.68757 -0.96125 0.5 0.637565 -0.961267 0.5 0.58744 -0.96127 0.5 
0.537328 -0.961265 0.5 0.487259 -0.96126 0.5 0.437224 -0.961257 0.5 
0.387209 -0.961256 0.5 0.337203 -0.961255 0.5 0.287201 -0.961255 0.5 
0.2372 -0.961255 0.5 0.1872 -0.961255 0.5 0.1372 -0.961255 0.5 
0.0872001 -0.961255 0.5 0.0372 -0.961255 0.5 -0.0128 -0.961255 0.5 
-0.0628 -0.961255 0.5 -0.1128 -0.961255 0.5 -0.1628 -0.961255 0.5 
-0.2128 -0.961255 0.5 -0.2628 -0.961255 0.5 -0.3128 -0.961255 0.5 
-0.3628 -0.961255 0.5 -0.4128 -0.961255 0.5 -0.4628 -0.961255 0.5 
-0.5128 -0.961255 0.5 -0.5628 -0.961255 0.5 -0.6128 -0.961255 0.5 
-0.6628 -0.961255 0.5 -0.7128 -0.961255 0.5 -0.7628 -0.961255 0.5 
-0.8128 -0.961255 0.5 -0.8628 -0.961255 0.5 -0.9128 -0.961255 0.5 
-0.9628 -0.961255 0.5 -1.0128 -0.961255 0.5 -1.0628 -0.961255 0.5 
-1.1128 -0.961255 0.5 -1.1628 -0.961255 0.5 -1.2128 -0.961255 0.5 
-1.2628 -0.961255 0.5 -1.3128 -0.961255 0.5 -1.3628 -0.961255 0.5 
-1.4128 -0.961255 0.5 -1.4628 -0.961255 0.5 -1.5128 -0.961255 0.5 
-1.5628 -0.961255 0.5 -1.6128 -0.961255 0.5 -1.66281 -0.961256 0.5 
-1.71282 -0.961258 0.5 -1.76287 -0.961262 0.5 -1.81297 -0.961272 0.5 
-1.86319 -0.961289 0.5 -1.9136 -0.961316 0.5 -1.96428 -0.96135 0.5 
-2.01524 -0.961381 0.5 -2.0663 -0.961398 0.5 -2.11702 -0.961397 0.5 
-2.16655 -0.961362 0.5 -2.2138 -0.96117 0.5 0.914451 -0.919033 0.5 
0.914918 1.42504 0.5 0.914917 1.37507 0.5 0.914915 1.3251 0.5 
0.914916 1.27512 0.5 0.914917 1.22514 0.5 0.91492 1.17514 0.5 
0.914922 1.12512 0.5 0.914923 1.07509 0.5 0.914922 1.02505 0.5 
0.914921 0.975025 0.5 0.91492 0.925008 0.5 0.91492 0.874999 0.5 
0.91492 0.824994 0.5 0.914922 0.774989 0.5 0.914924 0.724977 0.5 
0.914927 0.674947 0.5 0.914932 0.62488 0.5 0.914942 0.574745 0.5 
0.914956 0.524492 0.5 0.914977 0.474063 0.5 0.915006 0.423393 0.5 
0.915043 0.372445 0.5 0.915088 0.321257 0.5 0.91512 0.270037 0.5 
0.915046 0.219461 0.5 0.914957 0.170038 0.5 0.914948 0.121253 0.5 
0.914942 0.0724397 0.5 0.914932 0.0233953 0.5 0.914923 -0.0259138 0.5 
0.914916 -0.0754362 0.5 0.914912 -0.125082 0.5 0.914912 -0.174745 0.5 
0.914915 -0.224307 0.5 0.914923 -0.273649 0.5 0.914934 -0.322665 0.5 
0.914946 -0.371295 0.5 0.914954 -0.419596 0.5 0.914969 -0.467869 0.5 
0.915105 -0.517098 0.5 0.915224 -0.568085 0.5 0.915197 -0.620131 0.5 
0.915168 -0.672246 0.5 0.915189 -0.724044 0.5 0.915198 -0.775265 0.5 
0.915105 -0.825445 0.5 0.914903 -0.87371 0.5 0.91492 1.47503 0.5 
0.914922 1.52502 0.5 0.914924 1.57502 0.5 0.914927 1.62505 0.5 
0.914933 1.67512 0.5 0.914944 1.72526 0.5 0.914961 1.77552 0.5 
0.914997 1.82591 0.5 0.915071 1.87634 0.5 0.915119 1.9266 0.5 
0.915055 1.97616 0.5 0.914874 2.02407 0.5 0.914434 2.0692 0.5 
-2.25805 2.11068 0.5 0.874397 2.11133 0.5 0.83161 2.11135 0.5 
0.785481 2.11126 0.5 0.737109 2.11123 0.5 0.68757 2.11125 0.5 
0.637565 2.11127 0.5 0.58744 2.11127 0.5 0.537328 2.11127 0.5 
0.487259 2.11126 0.5 0.437224 2.11126 0.5 0.387209 2.11126 0.5 
0.337203 2.11125 0.5 0.287201 2.11125 0.5 0.2372 2.11125 0.5 
0.1872 2.11125 0.5 0.1372 2.11125 0.5 0.0872 2.11125 0.5 
0.0372 2.11125 0.5 -0.0128 2.11125 0.5 -0.0628 2.11125 0.5 
-0.1128 2.11125 0.5 -0.1628 2.11125 0.5 -0.2128 2.11125 0.5 
-0.2628 2.11125 0.5 -0.3128 2.11125 0.5 -0.3628 2.11125 0.5 
-0.4128 2.11125 0.5 -0.4628 2.11125 0.5 -0.5128 2.11125 0.5 
-0.5628 2.11125 0.5 -0.6128 2.11125 0.5 -0.6628 2.11125 0.5 
-0.7128 2.11125 0.5 -0.7628 2.11125 0.5 -0.8128 2.11125 0.5 
-0.8628 2.11125 0.5 -0.9128 2.11125 0.5 -0.9628 2.11125 0.5 
-1.0128 2.11125 0.5 -1.0628 2.11125 0.5 -1.1128 2.11125 0.5 
-1.1628 2.11125 0.5 -1.2128 2.11125 0.5 -1.2628 2.11125 0.5 
-1.3128 2.11125 0.5 -1.3628 2.11125 0.5 -1.4128 2.11125 0.5 
-1.4628 2.11125 0.5 -1.5128 2.11125 0.5 -1.5628 2.11125 0.5 
-1.6128 2.11125 0.5 -1.66281 2.11126 0.5 -1.71282 2.11126 0.5 
-1.76287 2.11126 0.5 -1.81297 2.11127 0.5 -1.86319 2.11129 0.5 
-1.9136 2.11132 0.5 -1.96428 2.11135 0.5 -2.01524 2.11138 0.5 
-2.0663 2.1114 0.5 -2.11702 2.1114 0.5 -2.16655 2.11136 0.5 
-2.2138 2.11117 0.5 -2.25792 2.06897 0.5 -2.25761 2.02393 0.5 
-2.25743 1.97611 0.5 -2.25739 1.92659 0.5 -2.25732 1.87634 0.5 
-2.25724 1.8259 0.5 -2.2572 1.7755 0.5 -2.25718 1.72523 0.5 
-2.25717 1.67507 0.5 -2.25716 1.625 0.5 -2.25715 1.52496 0.5 
-2.25715 1.57497 0.5 -2.25715 1.47496 0.5 -2.25715 1.42497 0.5 
-2.25715 1.37499 0.5 -2.25715 1.325 0.5 -2.25715 1.27501 0.5 
-2.25715 1.22502 0.5 -2.25715 1.17503 0.5 -2.25716 1.12504 0.5 
-2.25716 1.07505 0.5 -2.25716 1.02505 0.5 -2.25716 0.975054 0.5 
-2.25716 0.92505 0.5 -2.25716 0.875041 0.5 -2.25716 0.825031 0.5 
-2.25716 0.775021 0.5 -2.25715 0.725013 0.5 -2.25715 0.675008 0.5 
-2.25715 0.625004 0.5 -2.25715 0.575002 0.5 -2.25715 0.525001 0.5 
-2.25715 0.475 0.5 -2.25715 0.425 0.5 -2.25715 0.375 0.5 
-2.25715 0.325 0.5 -2.25715 0.275 0.5 -2.25715 0.225 0.5 
-2.25715 0.175 0.5 -2.25715 0.125 0.5 -2.25715 0.075 0.5 
-2.25715 0.025 0.5 -2.25715 -0.025 0.5 -2.25715 -0.075 0.5 
-2.25715 -0.125 0.5 -2.25715 -0.175 0.5 -2.25715 -0.225 0.5 
-2.25715 -0.275 0.5 -2.25715 -0.325001 0.5 -2.25715 -0.375005 0.5 
-2.25715 -0.425017 0.5 -2.25716 -0.475047 0.5 -2.25717 -0.525116 0.5 
-2.25718 -0.575261 0.5 -2.2572 -0.625524 0.5 -2.25724 -0.675916 0.5 
-2.25732 -0.726346 0.5 -2.25739 -0.776592 0.5 -2.25742 -0.826111 0.5 
[...]
CELL_DATA 1964
SCALARS p float
LOOKUP_TABLE default
-5.14822 -5.14743 -5.14742 -5.14772 -5.14802 -5.14823 -5.14835 -5.14838 -5.14834 
-5.14822 -5.148 -5.14768 -5.14738 -5.14738 -5.14819 -5.1951 -5.19491 -5.195 
-5.19511 -5.19524 -5.19531 -5.19533 -5.19529 -5.19521 -5.19508 -5.19492 -5.19475 
-5.19456 -5.19436 -5.19415 -5.19393 -5.19371 -5.19347 -5.19322 -5.19296 -5.19269 
-5.19241 -5.19211 -5.1918 -5.19148 -5.19114 -5.19079 -5.19042 -5.19003 -5.18963 
-5.18921 -5.18877 -5.18831 -5.18783 -5.18733 -5.18682 -5.18627 -5.18572 -5.18513 
-5.18454 -5.18392 -5.18329 -5.18264 -5.18198 -5.18131 -5.18064 -5.17996 -5.17931 
-5.17865 -5.17803 -5.17742 -5.17686 -5.17632 -5.17586 -5.1754 -5.17503 -5.17463 
-5.17428 -5.17393 -5.17373 -5.17308 -5.17089 -5.16949 -5.16942 -5.1959 -5.16931 
-5.19525 -5.19514 -5.19528 -5.19546 -5.19561 -5.19572 -5.19578 -5.19579 -5.19574 
-5.19566 -5.19555 -5.19541 -5.19526 -5.19509 -5.19491 -5.19472 -5.19452 -5.1943 
-5.19407 -5.19382 -5.19357 -5.1933 -5.19303 -5.19275 -5.19247 -5.19218 -5.1919 
-5.19162 -5.19137 -5.19112 -5.19056 -5.18787 -5.17817 -5.15697 -5.12476 -5.08885 
-5.06091 -5.05343 -5.0754 -5.1224 -5.18142 -5.25446 -5.32011 -5.33039 -5.29581 
-5.28922 -5.32147 -5.32089 -5.26529 -5.17338 -5.10657 -5.07266 -5.04902 -5.03617 
-5.03222 -5.03828 -5.05773 -5.08754 -5.11777 -5.13698 -5.14359 -5.14718 -5.19594 
-5.15333 -5.17434 -5.1743 -5.17392 -5.1733 -5.17263 -5.1726 -5.17497 -5.17766 
-5.19192 -5.22555 -5.1999 -5.19278 -5.1849 -5.18406 -5.18477 -5.18586 -5.18689 
-5.18791 -5.18929 -5.19124 -5.19345 -5.19553 -5.19706 -5.19822 -5.19868 -5.19926 
-5.19959 -5.19933 -5.19931 -5.19979 -5.20022 -5.20038 -5.20052 -5.20037 -5.20015 
-5.19977 -5.19938 -5.19894 -5.19853 -5.19809 -5.19766 -5.19692 -5.19517 -5.1924 
-5.18957 -5.18999 -5.19516 -5.17501 -5.19697 -5.15419 -5.15295 -5.15514 -5.15844 
-5.16245 -5.16569 -5.16774 -5.16916 -5.1703 -5.1712 -5.17207 -5.1729 -5.17375 
-5.17459 -5.17547 -5.17634 -5.17723 -5.17812 -5.17903 -5.17992 -5.1808 -5.18164 
-5.18247 -5.18325 -5.18401 -5.18472 -5.1854 -5.18603 -5.18664 -5.18722 -5.18777 
-5.1883 -5.18881 -5.1893 -5.18978 -5.19024 -5.19068 -5.1911 -5.19152 -5.19191 
-5.1923 -5.19266 -5.19301 -5.19334 -5.19366 -5.19395 -5.19422 -5.19448 -5.19472 
-5.19494 -5.19515 -5.19531 -5.19545 -5.19551 -5.19548 -5.19524 -5.19477 -5.1943 
-5.19438 -5.19454 -5.19318 -5.1913 -5.19204 -5.19598 -5.15906 -5.19702 -5.19571 
-5.16853 -5.19429 -5.17258 -5.17267 -5.17351 -5.17509 -5.17522 -5.17498 -5.17502 
-5.17514 -5.1754 -5.1757 -5.1761 -5.17653 -5.17705 -5.17759 -5.1782 -5.17882 
-5.17948 -5.18013 -5.18081 -5.18147 -5.18214 -5.1828 -5.18345 -5.18408 -5.1847 
-5.18529 -5.18588 -5.18643 -5.18698 -5.18749 -5.18799 -5.18847 -5.18893 -5.18937 
-5.18979 -5.19019 -5.19058 -5.19095 -5.1913 -5.19164 -5.19196 -5.19227 -5.19257 
-5.19285 -5.19312 -5.19338 -5.19363 -5.19387 -5.1941 -5.19431 -5.19452 -5.19472 
-5.19491 -5.19508 -5.19524 -5.19537 -5.19546 -5.19552 -5.19552 -5.19549 -5.1954 
-5.19529 -5.19515 -5.19518 -5.17412 -5.19654 -5.19653 -5.19662 -5.1965 -5.19638 
-5.19668 -5.19708 -5.19679 -5.19625 -5.19597 -5.19527 -5.19443 -5.19312 -5.19162 
-5.1903 -5.18961 -5.18945 -5.18947 -5.18946 -5.18967 -5.19084 -5.19798 -5.20045 
-5.22709 -5.16403 -5.14888 -5.14824 -5.1488 -5.14995 -5.15064 -5.15097 -5.15114 
-5.1513 -5.15133 -5.15123 -5.15034 -5.14924 -5.14878 -5.15971 -5.19587 -5.17805 
-5.17824 -5.1756 -5.1748 -5.17436 -5.1728 -5.17415 -5.1963 -5.19608 -5.19573 
-5.19541 -5.19506 -5.19479 -5.19453 -5.1944 -5.19422 -5.19381 -5.193 -5.19052 
-5.18929 -5.19154 -5.1497 -5.19214 -5.19117 -5.19193 -5.19212 -5.19217 -5.19241 
-5.19261 -5.19271 -5.19252 -5.19227 -5.19192 -5.19168 -5.19145 -5.19124 -5.19101 
-5.19078 -5.19053 -5.19027 -5.18998 -5.18969 -5.18937 -5.18904 -5.18868 -5.18831 
-5.18792 -5.18753 -5.18711 -5.18668 -5.18623 -5.18577 -5.18528 -5.18478 -5.18426 
-5.18372 -5.18315 -5.18256 -5.18194 -5.18128 -5.18059 -5.17986 -5.17908 -5.17827 
-5.17742 -5.17655 -5.17565 -5.17473 -5.1738 -5.17288 -5.17196 -5.17107 -5.17017 
-5.16932 -5.16846 -5.16762 -5.16675 -5.16585 -5.16479 -5.16343 -5.16148 -5.15831 
-5.1544 -5.15072 -5.1477 -5.14746 -5.14695 -5.14794 -5.15378 -5.15833 -5.15746 
-5.14281 -5.12673 -5.11617 -5.13 -5.14657 -5.19639 -5.16629 -5.24986 -5.27192 
-5.27797 -5.23481 -5.33487 -5.33729 -5.27755 -5.2694 -5.27224 -5.26432 -5.22454 
-5.17561 -5.1475 -5.14873 -5.17992 -5.20568 -5.21268 -5.20015 -5.19512 -5.19241 
-5.19165 -5.1916 -5.19181 -5.19208 -5.19237 -5.19265 -5.19294 -5.19322 -5.19349 
-5.19376 -5.19401 -5.19425 -5.19448 -5.1947 -5.19491 -5.1951 -5.19528 -5.19544 
-5.19559 -5.19573 -5.19585 -5.19593 -5.19598 -5.19598 -5.19594 -5.19586 -5.19574 
-5.19556 -5.19536 -5.19529 -5.19228 -5.19127 -5.19221 -5.19109 -5.19212 -5.19865 
-5.19353 -5.19812 -5.19273 -5.19165 -5.19278 -5.1938 -5.20398 -4.95279 -5.20398 
-5.19474 -5.19452 -5.19418 -5.20454 -5.19931 -5.20452 -4.9528 -5.2048 -5.1949 
-5.2059 -5.20539 -5.20522 -5.20488 -4.95311 -5.19518 -5.19547 -5.19585 -4.95356 
-5.2061 -5.20808 -5.20702 -5.20681 -5.19666 -5.19621 -4.95413 -4.95493 -5.19701 
-5.19753 -5.20848 -5.20006 -5.19933 -5.19869 -5.19793 -5.21024 -4.95643 -4.95809 
-5.21097 -5.21259 -5.20085 -5.19928 -5.20064 -5.20132 -5.21401 -5.2134 -4.95999 
-5.21325 -4.95833 -5.21122 -5.19808 -5.19422 -5.19542 -5.19656 -5.20736 -5.2099 
-4.95533 -5.20628 -4.95255 -5.20449 -5.19329 -5.19216 -5.19251 -5.20262 -5.20378 
-4.9507 -5.20195 -4.94948 -5.20078 -5.1918 -5.14662 -4.95303 -4.95327 -5.20379 
-5.19386 -5.19246 -5.19277 -5.19305 -5.19234 -5.19369 -5.20374 -5.19298 -5.19208 
-5.19221 -5.19228 -5.19195 -5.19278 -5.20273 -4.95214 -5.20288 -5.20326 -4.95322 
-4.95304 -4.95352 -4.95344 -4.95363 -5.20402 -5.19401 -5.19402 -5.2034 -5.19345 
-5.19322 -4.95381 -4.95424 -4.95354 -4.95399 -4.95488 -4.95608 -4.95716 -4.95551 
-4.95483 -4.95359 -5.19052 -5.19146 -5.19172 -5.19196 -5.20035 -4.94875 -5.19928 
-5.19868 -4.94722 -5.19701 -5.19068 -5.15369 -5.20268 -5.19128 -5.19023 -5.19555 
-4.94364 -5.18899 -4.92578 -5.16136 -5.15038 -5.14664 -5.14666 -5.14695 -5.1616 
-5.16501 -4.92402 -5.16119 -4.92259 -5.162 -5.14706 -5.14753 -5.14736 -5.16179 
-5.16146 -4.92137 -5.16132 -4.92061 -5.16161 -5.14765 -5.16154 -5.20236 -5.19255 
-5.19177 -5.19158 -4.95274 -4.9525 -4.95188 -4.95129 -4.95154 -5.20219 -5.19233 
-5.20182 -5.19136 -5.19114 -5.19208 -5.19184 -5.20163 -4.95093 -5.19157 -5.19088 
-5.19062 -4.9507 -4.95056 -4.95182 -4.95178 -4.95247 -4.95258 -4.95281 -4.95192 
-4.9521 -4.95313 -4.95116 -4.95117 -4.95056 -4.95057 -4.95057 -4.95129 -4.95121 
-4.95009 -5.191 -5.19033 -5.19004 -5.1913 -5.20103 -4.9503 -5.20125 -5.20064 
-4.94963 -5.20038 -5.1907 -5.19997 -5.19036 -5.18972 -5.18939 -5.19003 -5.19968 
-4.94891 -5.19924 -4.94928 -4.94929 -4.94943 -4.94872 -4.94795 -4.94813 -5.19892 
-5.18966 -5.18903 -5.18866 -5.18929 -5.18889 -5.19844 -4.94728 -5.19809 -5.18849 
-5.18788 -5.18827 -5.18745 -5.18703 -5.18763 -5.18805 -5.19757 -4.94634 -5.19719 
-5.19663 -5.18716 -5.18657 -5.18612 -5.1867 -5.19623 -4.94532 -5.19562 -5.19518 
-5.18569 -5.18514 -5.18563 -5.18619 -4.9442 -4.94403 -4.94618 -4.9471 -4.94698 
-4.94515 -4.94503 -5.18401 -5.18351 -5.18408 -5.18461 -5.18293 -5.18343 -5.19279 
-4.95677 -4.95797 -4.95587 -4.9547 -4.95268 -4.95379 -4.95229 -4.95232 -4.95137 
-4.95053 -4.95034 -4.95126 -4.95366 -4.95194 -4.95107 -4.94925 -4.94994 -4.95087 
-4.95009 -4.94899 -4.95054 -4.95274 -4.9544 -4.95187 -4.94996 -4.94699 -4.94862 
-4.94757 -4.94983 -4.95117 -4.94936 -4.9483 -4.94762 -4.9483 -4.94712 -4.94579 
-4.94609 -4.94665 -4.94491 -4.94576 -4.94989 -4.94992 -4.94993 -4.94994 -4.94858 
-4.94782 -4.94782 -4.94859 -4.9439 -4.94606 -4.94607 -4.94699 -4.94698 -4.9492 
-4.94926 -4.94855 -4.9478 -4.94776 -4.9485 -4.9484 -4.94956 -4.94979 -4.94909 
-4.94887 -4.94822 -4.94756 -4.94769 -4.94694 -4.94505 -4.94392 -4.94398 -4.94697 
-4.94611 -4.94608 -4.94509 -4.94516 -4.9441 -4.94425 -4.94802 -4.94852 -4.94916 
-4.94856 -4.94776 -4.94753 -4.94793 -4.94735 -4.94706 -4.94658 -4.94613 -4.94614 
-4.94687 -4.94675 -4.94611 -4.94605 -4.94548 -4.94524 -4.94533 -4.94444 -4.94463 
-4.94541 -4.94278 -5.18068 -5.18023 -5.18095 -5.18165 -5.1823 -5.18141 -5.18213 
-5.18277 -5.19201 -4.94011 -5.19143 -5.18461 -5.18514 -5.19451 -4.94297 -5.19404 
-5.19331 -4.94161 -4.9414 -4.93987 -4.9382 -4.93846 -5.19058 -5.18994 -4.94122 
-4.94266 -4.94263 -4.94124 -4.93965 -4.93787 -4.93792 -4.93966 -4.93797 -5.189 
-5.17989 -5.17945 -5.17866 -5.1791 -5.18831 -4.93667 -5.1873 -5.17824 -5.17781 
-5.17696 -5.17741 -5.18659 -4.93475 -5.18551 -4.93081 -4.93088 -5.18373 -5.17474 
-5.17425 -5.17517 -5.17606 -5.17337 -5.17391 -5.18312 -4.94156 -4.94134 -4.94274 
-4.94291 -4.94314 -4.93827 -4.94002 -4.93976 -5.1765 -5.17565 -5.18482 -4.93278 
-4.93252 -4.93447 -4.93376 -4.934 -4.93602 -4.93638 -4.93022 -4.92968 -4.93155 
-4.93196 -4.93589 -4.93595 -4.93373 -4.93407 -4.94188 -4.94228 -4.94343 -4.94482 
-4.945 -4.94678 -4.94656 -4.94736 -4.94701 -4.94668 -4.94621 -4.94638 -4.94566 
-4.94466 -4.94565 -4.94567 -4.94447 -4.94437 -4.94447 -4.94847 -4.94764 -4.94626 
-4.94405 -4.94559 -4.94396 -4.94308 -4.94107 -4.94186 -4.9395 -4.93779 -4.94189 
-4.94334 -4.93441 -4.93307 -4.93018 -4.93318 -4.93598 -4.93447 -4.93888 -4.93649 
-4.93633 -4.94289 -4.94279 -4.941 -4.94136 -4.9373 -4.93916 -4.93984 -4.93836 
-4.9371 -4.93009 -4.93095 -4.92739 -4.92633 -4.92698 -5.1481 -5.14737 -5.14759 
-5.14754 -5.16183 -4.92109 -4.92288 -5.16219 -5.16251 -5.14943 -5.16857 -5.1754 
-5.15131 -5.16149 -5.1639 -4.91932 -5.17026 -4.92912 -5.1744 -5.17463 -4.93469 
-4.93317 -4.93243 -4.93088 -4.93577 -4.93452 -4.93607 -4.93531 -4.93359 -4.93309 
-4.93143 -4.93198 -4.93016 -4.93036 -4.93193 -4.93034 -4.92936 -4.92915 -4.93253 
-4.93409 -4.93439 -4.93298 -5.18078 -5.18527 -5.18427 -5.1798 -4.93439 -5.17755 
-5.17739 -5.17679 -4.93467 -5.18031 -5.17972 -5.18573 -5.17638 -5.17469 -5.17415 
-5.17478 -5.17623 -5.1756 -4.94567 -4.94508 -4.94488 -4.9455 -4.94594 -4.94633 
-4.94601 -4.94578 -5.17152 -5.17079 -5.17163 -5.17247 -5.17001 -5.17089 -5.18054 
-4.92823 -5.18072 -5.18165 -5.17228 -5.17304 -5.18209 -4.92924 -5.17985 -5.17022 
-5.16923 -5.16853 -5.16971 -5.17979 -4.92807 -5.1792 -4.94525 -4.94565 -4.94558 
-4.94535 -4.94539 -4.93612 -4.93487 -4.93693 -4.93628 -4.9317 -4.93138 -4.92933 
-4.92969 -4.92963 -4.92975 -4.93234 -4.93863 -4.9288 -5.17888 -5.1685 -5.16698 
-5.16777 -5.1691 -4.93073 -4.92936 -4.93381 -4.93081 -4.92921 -4.92872 -5.17835 
-5.17445 -5.16224 -5.1599 -5.1628 -5.16471 -5.16599 -5.16483 -5.16657 -5.16767 
-5.17732 -4.93071 -4.93113 -5.17585 -5.17185 -5.15886 -5.15611 -5.15206 -5.15495 
-5.16384 -4.92792 -5.16031 -5.14874 -5.15085 -5.14837 -5.15382 -5.1625 -5.18836 
-5.17887 -5.17177 -5.17427 -5.16416 -5.18246 -4.94243 -4.94164 -4.94314 -4.9336 
-4.9404 -4.93712 -4.93824 -4.94315 -4.93811 -4.94645 -4.93109 -4.89311 -4.88215 
-4.93106 -4.93135 -4.94422 -4.94374 -4.94325 -4.94275 -4.94375 -4.94409 -4.94441 
-4.94472 -4.94514 -4.9455 -4.94546 -4.94527 -4.94537 -4.94527 -4.9426 -4.94363 
-4.94321 -4.94194 -4.94069 -4.93951 -4.94066 -4.94159 -4.94247 -4.94175 -4.94274 
-4.94328 -4.94386 -4.94447 -4.94407 -4.94325 -4.93166 -4.93139 -4.93184 -4.9311 
-4.93486 -4.93666 -4.94485 -4.9451 -4.94482 -4.9444 -4.94399 -4.9446 -4.94439 
-4.94362 -4.94331 -4.93918 -4.93985 -4.93848 -4.93765 -4.93703 -4.93838 -4.93868 
-4.94023 -4.94 -4.94147 -4.94163 -4.9419 -4.94228 -4.94112 -4.9406 -4.94504 
-4.94521 -4.94531 -4.94544 -4.94549 -4.94554 -4.94512 -4.94559 -4.94565 -4.94306 
-4.94408 -4.94421 -4.94499 -4.94496 -4.94573 -4.94597 -4.94584 -4.94498 -4.944 
-4.94399 -4.9428 -4.94289 -4.94504 -4.94516 -4.9323 -4.93313 -4.93418 -4.93488 
-4.93474 -4.93298 -4.93321 -4.93359 -4.93517 -4.9356 -4.93613 -4.94162 -4.94098 
-4.94044 -4.93879 -4.93951 -4.94036 -4.94126 -4.9423 -4.94299 -4.94216 -4.94302 
-4.94365 -4.94428 -4.94501 -4.94468 -4.9451 -4.94384 -4.9446 -4.94487 -4.93787 
-4.93899 -4.93759 -4.94016 -4.93909 -4.93827 -4.93441 -4.93271 -4.93096 -4.93317 
-4.93574 -4.93634 -4.93809 -4.94175 -4.94048 -4.9413 -4.94237 -4.94337 -4.94292 
-4.9443 -4.944 -4.94376 -4.93989 -4.93983 -4.94119 -4.94129 -4.94257 -4.94242 
-4.94364 -4.94368 -4.93455 -4.93254 -4.94192 -4.94322 -4.94239 -4.90243 -4.89071 
-4.88494 -4.90108 -4.82629 -4.88317 -4.83583 -4.8561 -4.88582 -4.8208 -4.85483 
-5.21027 -5.20411 -5.19276 -5.18517 -4.94548 -4.94582 -4.94569 -4.94549 -4.94587 
-4.94605 -4.94643 -4.94613 -4.94633 -4.94541 -4.94529 -4.94591 -4.94589 -4.94172 
-4.9446 -4.94382 -4.93676 -4.9393 -4.94082 -5.2837 -5.23906 -5.20428 -5.19738 
-5.20084 -5.19621 -5.1925 -4.90716 -4.85272 -5.21152 -5.18874 -5.21103 -5.25412 
-4.92888 -5.26316 -5.28303 -5.24471 -4.95815 -4.95461 -4.92883 -4.96019 -4.8994 
-4.93434 -4.93472 -4.93553 -4.93498 -5.18586 -4.93425 -4.93381 -4.93356 -4.93378 
-5.1856 -4.93661 -4.93653 -4.93827 -4.93834 -4.93998 -4.94151 -4.94144 -4.93992 
-4.94166 -4.94015 -4.93853 -4.93685 -4.93882 -4.9372 -4.93764 -4.93476 -4.93523 
-4.93654 -5.18615 -5.18548 -5.17672 -5.17651 -5.17632 -5.18515 -5.18559 -5.18536 
-5.17639 -5.17657 -5.17632 -5.17562 -5.17558 -5.17578 -5.17568 -5.17594 -5.17621 
-5.17399 -5.17361 -5.17319 -5.17711 -5.17749 -5.18627 -5.17702 -5.17661 -5.17753 
-5.17802 -5.18707 -5.18737 -5.17852 -4.9404 -4.94189 -4.94328 -4.94291 -4.94281 
-4.94405 -4.94418 -4.94531 -4.94633 -4.94614 -4.94306 -4.94313 -4.94363 -4.95273 
-4.97122 -4.95806 -4.94601 -4.94404 -4.94314 -4.9426 -4.9439 -4.93596 -4.90201 
-4.87854 -4.86191 -4.80346 -4.77828 -4.77717 -5.25002 -5.28026 -5.27886 -5.23309 
-5.24646 -4.96951 -4.95521 -5.24856 -5.23131 -5.20221 -5.13182 -5.13934 -5.16969 
-5.13137 -5.18924 -4.8396 -5.11669 -5.13088 -5.16564 -4.9858 -4.89383 -4.96656 
-4.97941 -4.95643 -4.9455 -4.94415 -4.94416 -4.88556 -5.17215 -5.23591 -5.2202 
-5.19608 -5.19357 -5.20327 -5.21392 -4.99663 -4.99085 -4.94431 -4.94729 -4.97763 
-4.94526 -4.94698 -4.9467 -4.94622 -4.9464 -4.94659 -4.94674 -4.947 -4.94648 
-4.94659 -4.94587 -4.94499 -4.94514 -4.9459 -4.94668 -4.94722 -4.94741 -4.9476 
-4.94586 -4.94486 -4.9448 -4.94588 -4.94688 -4.94677 -4.94779 -4.94862 -4.94748 
-4.94712 -4.94748 -4.94792 -4.94834 -4.94782 -4.94724 -4.94751 -4.94679 -4.94701 
-4.94725 -4.94806 -4.94779 -4.94848 -4.94455 -4.94434 -4.9455 -4.94654 -4.9392 
-4.93951 -4.93801 -5.18955 -5.18824 -5.18866 -5.17974 -5.17866 -5.17915 -5.17927 
-5.17993 -5.18042 -5.18105 -5.19005 -5.18176 -5.19092 -5.19146 -5.1824 -5.17806 
-5.18057 -4.94571 -4.94676 -4.94698 -4.94239 -4.94217 -4.94072 -4.94098 -5.1923 
-5.19419 -5.19364 -5.19285 -5.18374 -5.1831 -5.18441 -5.18503 -5.18191 -4.94371 
-4.94353 -4.94478 -4.94494 -4.94607 -5.18514 -5.18567 -5.19492 -5.19544 -5.18625 
-5.18451 -5.18389 -5.18323 -5.18258 -5.18125 -4.94816 -4.94873 -4.94926 -4.94868 
-4.94808 -4.94779 -4.94832 -4.9488 -4.94974 -4.94923 -4.94963 -4.95019 -4.95062 
-4.95002 -4.94936 -4.94902 -4.94835 -4.94485 -4.94597 -4.94615 -4.94501 -4.9497 
-4.94802 -4.94704 -4.94726 -4.94829 -4.94862 -4.94552 -4.94673 -4.94641 -4.94755 
-4.9479 -4.94898 -4.95098 -5.20112 -5.21239 -5.22219 -5.20838 -5.20036 -5.19153 
-5.19127 -5.20076 -5.19141 -4.94768 -4.94663 -4.94588 -4.94716 -4.94831 -4.9497 
-4.94869 -4.949 -5.20098 -4.94753 -5.2012 -5.19162 -5.19216 -5.19189 -5.20149 
-4.94812 -5.20169 -4.94937 -4.95034 -4.94891 -4.94923 -4.95006 -5.19304 -5.19274 
-5.19245 -5.20201 -5.20223 -4.94991 -5.20257 -5.20281 -5.19332 -5.20314 -4.9512 
-4.95084 -4.94997 -4.94959 -4.95045 -4.95121 -4.95147 -4.95081 -4.95041 -4.95104 
-4.95161 -4.9488 -4.94947 -4.94911 -4.94968 -4.95008 -4.95064 -4.95021 -4.9507 
-4.94772 -4.94748 -4.94833 -4.94858 -4.94937 -4.94909 -4.94979 -4.95008 -4.95134 
-4.95101 -4.95043 -4.95074 -4.95098 -4.94881 -4.94793 -4.94805 -4.94711 -5.19825 
-5.1977 -5.19723 -5.19661 -5.19611 -5.18685 -5.1874 -5.18631 -5.18573 -5.18687 
-5.18741 -5.18796 -5.18847 -5.18793 -5.18843 -5.18898 -5.18945 -5.1987 -5.18891 
-5.18937 -4.95042 -4.95032 -4.9496 -4.9497 -4.94892 -5.20006 -5.19961 -5.1992 
-5.18992 -5.19035 -5.18981 -5.19023 -5.19078 -5.19118 -5.20044 -5.19063 -5.19102 
-4.95159 -4.95167 -4.95107 -5.20225 -5.20158 -5.20121 -5.20086 -5.19158 -5.19194 
-5.19139 -5.19264 -5.20191 -5.1923 -5.19174 -5.19208 -5.19296 -4.95116 -4.95164 
-4.95116 -4.95189 -4.95155 -4.95206 -4.9524 -4.95266 -4.95215 -4.95222 -4.95273 
-5.20393 -5.20341 -5.20313 -5.20285 -5.20255 -5.19327 -4.94593 -4.95161 -4.95282 
-4.95218 -4.95145 -4.95062 -4.95077 -5.20339 -5.19361 -5.19388 -4.95196 -4.95262 
-4.95228 -4.95189 -4.95211 -4.95256 -4.95205 -4.95248 -4.95334 -4.95299 -4.95254 
-4.95288 -4.95314 -4.95338 -4.95287 -4.95319 -4.95337 -4.95383 -4.95369 -4.95409 
-4.95381 -4.95376 -4.95342 -4.95299 -5.19241 -5.19271 -5.19301 -5.19357 -5.19386 
-5.1933 -5.19357 -4.95358 -4.95363 -4.95319 -5.2044 -5.19441 -5.19416 -5.2037 
-4.95155 -5.20393 -5.20422 -5.19466 -5.19489 -5.20443 -4.95224 -5.19413 -5.19439 
-5.20367 -5.19464 -5.19488 -5.20417 -5.19432 -5.19408 -5.19383 -5.19455 -5.19511 
-5.19533 -5.20462 -5.19554 -5.20483 -5.20504 -5.19575 -4.95403 -4.95438 -4.95436 
-4.95413 -4.95439 -4.95451 -4.95422 -4.95415 -5.19532 -5.19511 -5.20469 -4.95284 
-5.20488 -5.19552 -5.2056 -5.20546 -5.20527 -5.2051 -4.95335 -5.1957 -5.19586 
-5.19601 -4.95379 -5.20575 -5.19615 -5.19627 -5.20587 -5.20599 -5.19636 -5.19643 
-5.20607 -4.95442 -4.954 -5.20559 -4.95483 -4.95473 -4.95462 -4.95466 -5.20591 
-5.19518 -5.19497 -5.19476 -5.19537 -5.19594 -5.20523 -5.20542 -5.19612 -5.19554 
-5.1957 -5.19584 -5.19644 -5.20575 -5.19629 -5.19596 -5.20627 -5.20615 -5.20603 
-5.1967 -5.19658 -5.19679 -5.19686 -4.9547 -4.95461 -5.20613 -5.19647 -5.19647 
-5.20618 -5.19644 -5.20628 -5.20133 -5.19636 -5.1962 -5.19613 -5.1961 -5.19605 
-5.1961 -5.1969 -5.2064 -5.20146 -5.19681 -5.20183 -5.19648 -5.19587 -5.19575 
-5.196 -5.19541 
VECTORS U float
-0.252608 0 0 -0.142231 0 0 -0.0929637 0 0 
-0.0673548 0 0 -0.0573251 0 0 -0.053497 0 0 
-0.052508 0 0 -0.0526525 0 0 -0.0542828 0 0 
-0.0574404 0 0 -0.065246 0 0 -0.0819515 0 0 
-0.116613 0 0 -0.187128 0 0 -0.3632 0 0 
0 0 0 0 0 0 0 0 0 
0 0 0 0 0 0 0 0 0 
0 0 0 0 0 0 0 0 0 
0 0 0 0 0 0 0 0 0 
0 0 0 0 0 0 0 0 0 
0 0 0 0 0 0 0 0 0 
0 0 0 0 0 0 0 0 0 
0 0 0 0 0 0 0 0 0 
0 0 0 0 0 0 0 0 0 
0 0 0 0 0 0 0 0 0 
0 0 0 0 0 0 0 0 0 
0 0 0 0 0 0 0 0 0 
0 0 0 0 0 0 0 0 0 
0 0 0 0 0 0 0 0 0 
0 0 0 0 0 0 0 0 0 
0 0 0 0 0 0 0 0 0 
0 0 0 0 0 0 0 0 0 
0 0 0 0 0 0 0 0 0 
0 0 0 0 0 0 0 0 0 
0 0 0 0 0 0 0 0 0 
0 0 0 0 0 0 0 0 0 
0 0 0 0 0 0 0 0 0 
0 0 0 0 0 0 0 0 0 
0 0 0 0 0 0 0 0 0 
0 0 0 0 0 0 0 0 0 
0 0 0 0 0 0 0 0 0 
0 0 0 0 0 0 0 0 0 
0 0 0 0 0 0 0 0 0 
0 0 0 0 0 0 0 0 0 
0 0 0 0 0 0 0 0 0 
0 0 0 0 0 0 0 0 0 
0 0 0 0 0 0 0 0 0 
0 0 0 0 0 0 0 0 0 
0 0 0 0 0 0 0 0 0 
0 0 0 0 0 0 0 0 0 
0 0 0 0 0 0 0 0 0 
0 0 0 0 0 0 0 0 0 
0 0 0 0 0 0 0 0 0 
0 0 0 0 0 0 0 0 0 
0 0 0 0 0 0 0 0 0 
0 0 0 0 0 0 0 0 0 
0 0 0 0 0 0 0 0 0 
0 0 0 0 0 0 0 0 0 
0 0 0 0 0 0 0 0 0 
0 0 0 0 0 0 0 0 0 
0 0 0 0 0 0 0 0 0 
0 0 0 0 0 0 0 0 0 
0 0 0 0 0 0 0 0 0 
0 0 0 0 0 0 0 0 0 
0 0 0 0 0 0 0 0 0 
0 0 0 0 0 0 0 0 0 
0 0 0 0 0 0 0 0 0 
0 0 0 0 0 0 0 0 0 
0 0 0 0 0 0 0 0 0 
0 0 0 0 0 0 0 0 0 
0 0 0 0 0 0 0 0 0 
0 0 0 0 0 0 0 0 0 
0 0 0 0 0 0 0 0 0 
0 0 0 0 0 0 0 0 0 
0 0 0 0 0 0 0 0 0 
0 0 0 0 0 0 0 0 0 
0 0 0 0 0 0 0 0 0 
0 0 0 0 0 0 0 0 0 
0 0 0 0 0 0 0 0 0 
0 0 0 0 0 0 0 0 0 
0 0 0 0 0 0 0 0 0 
0 0 0 0 0 0 0 0 0 
0 0 0 0 0 0 0 0 0 
0 0 0 0 0 0 0 0 0 
0 0 0 0 0 0 0 0 0 
0 0 0 0 0 0 0 0 0 
0 0 0 0 0 0 0 0 0 
0 0 0 0 0 0 0 0 0 
0 0 0 0 0 0 0 0 0 
0 0 0 0 0 0 0 0 0 
0 0 0 0 0 0 0 0 0 
0 0 0 0 0 0 0 0 0 
0 0 0 0 0 0 0 0 0 
0 0 0 0 0 0 0 0 0 
0 0 0 0 0 0 0 0 0 
0 0 0 0 0 0 0 0 0 
0 0 0 0 0 0 -0.00117295 -0.00326072 0.037898 
-0.0353088 0.0194442 -0.0882063 0.00116889 0.00650868 -0.166105 0.0101767 -0.0130934 0.0518289 
0.015968 -0.00203185 0.0719647 -0.000784471 -0.00201724 0.0769424 -0.016818 -0.00293705 0.0781626 
-0.0179952 -0.0032483 0.0765116 -0.0196072 -0.00323488 0.0739184 -0.023351 -0.0027227 0.0713862 
-0.0270518 -0.00261703 0.0687478 -0.030189 -0.00220653 0.0661678 -0.032494 -0.0020466 0.0634988 