# vtk DataFile Version 5.1
vtk output
ASCII
DATASET POLYDATA
POINTS 2268 float
0.95 -0.51025 1.5 0.95 -0.463716 1.5 0.95 -0.416896 1.5 
0.95 -0.36957 1.5 0.95 -0.321629 1.5 0.95 -0.273082 1.5 
0.95 -0.224037 1.5 0.95 -0.174656 1.5 0.95 -0.125122 1.5 
0.95 -0.0756174 1.5 0.95 -0.0263053 1.5 0.95 0.0226782 1.5 
0.95 0.0712465 1.5 0.95 0.119386 1.5 0.95 0.167169 1.5 
0.95 0.21475 1.5 -2.25821 -1 1.5 -2.2147 -1 1.5 
-2.16839 -1 1.5 -2.11925 -1 1.5 -2.06821 -1 1.5 
-2.01649 -1 1.5 -1.96494 -1 1.5 -1.91389 -1 1.5 
-1.86329 -1 1.5 -1.813 -1 1.5 -1.76287 -1 1.5 
-1.71282 -1 1.5 -1.66281 -1 1.5 -1.6128 -1 1.5 
-1.5628 -1 1.5 -1.5128 -1 1.5 -1.4628 -1 1.5 
-1.4128 -1 1.5 -1.3628 -1 1.5 -1.3128 -1 1.5 
-1.2628 -1 1.5 -1.2128 -1 1.5 -1.1628 -1 1.5 
-1.1128 -1 1.5 -1.0628 -1 1.5 -1.0128 -1 1.5 
-0.9628 -1 1.5 -0.9128 -1 1.5 -0.8628 -1 1.5 
-0.8128 -1 1.5 -0.7628 -1 1.5 -0.7128 -1 1.5 
-0.6628 -1 1.5 -0.6128 -1 1.5 -0.5628 -1 1.5 
-0.5128 -1 1.5 -0.4628 -1 1.5 -0.4128 -1 1.5 
-0.3628 -1 1.5 -0.3128 -1 1.5 -0.2628 -1 1.5 
-0.2128 -1 1.5 -0.1628 -1 1.5 -0.1128 -1 1.5 
-0.0627997 -1 1.5 -0.0128001 -1 1.5 0.0371998 -1 1.5 
0.0872002 -1 1.5 0.1372 -1 1.5 0.1872 -1 1.5 
0.2372 -1 1.5 0.2872 -1 1.5 0.337202 -1 1.5 
0.387208 -1 1.5 0.437225 -1 1.5 0.48727 -1 1.5 
0.537371 -1 1.5 0.587563 -1 1.5 0.637834 -1 1.5 
0.688007 -1 1.5 0.737567 -1 1.5 0.785588 -1 1.5 
0.831004 -1 1.5 0.873194 -1 1.5 0.912458 -1 1.5 
-2.3 -1 1.5 0.95 -1 1.5 -2.3 -0.918976 1.5 
-2.3 -0.960348 1.5 -2.3 -0.874736 1.5 -2.3 -0.827461 1.5 
-2.3 -0.777926 1.5 -2.3 -0.727276 1.5 -2.3 -0.676405 1.5 
-2.3 -0.625734 1.5 -2.3 -0.575335 1.5 -2.3 -0.525135 1.5 
-2.3 -0.475049 1.5 -2.3 -0.425015 1.5 -2.3 -0.375004 1.5 
-2.3 -0.325001 1.5 -2.3 -0.275 1.5 -2.3 -0.225 1.5 
-2.3 -0.175 1.5 -2.3 -0.125 1.5 -2.3 -0.0749998 1.5 
-2.3 -0.0249997 1.5 -2.3 0.0250002 1.5 -2.3 0.0749998 1.5 
-2.3 0.125 1.5 -2.3 0.175 1.5 -2.3 0.225 1.5 
-2.3 0.275 1.5 -2.3 0.325 1.5 -2.3 0.375 1.5 
-2.3 0.425001 1.5 -2.3 0.475003 1.5 -2.3 0.525007 1.5 
-2.3 0.575019 1.5 -2.3 0.625047 1.5 -2.3 0.675105 1.5 
-2.3 0.725214 1.5 -2.3 0.775393 1.5 -2.3 0.825656 1.5 
-2.3 0.875979 1.5 -2.3 0.9263 1.5 -2.3 0.976528 1.5 
-2.3 1.0266 1.5 -2.3 1.07652 1.5 -2.3 1.12631 1.5 
-2.3 1.17602 1.5 -2.3 1.2257 1.5 -2.3 1.27536 1.5 
-2.3 1.32501 1.5 -2.3 1.30291 1.5 -2.3 1.37466 1.5 
-2.3 1.42427 1.5 -2.3 1.47388 1.5 -2.3 1.52354 1.5 
-2.3 1.57339 1.5 -2.3 1.58056 1.5 -2.3 1.6235 1.5 
-2.3 1.67389 1.5 -2.3 1.72449 1.5 -2.3 1.77525 1.5 
-2.3 1.82617 1.5 -2.3 1.87718 1.5 -2.3 1.92789 1.5 
-2.3 1.97745 1.5 -2.3 2.02473 1.5 -2.3 2.06898 1.5 
-2.3 2.11035 1.5 -2.3 2.15 1.5 0.95 1.375 1.5 
0.95 1.425 1.5 0.95 1.475 1.5 0.95 1.525 1.5 
0.95 1.57502 1.5 0.95 1.62505 1.5 0.95 1.67514 1.5 
0.95 1.72533 1.5 0.95 1.77573 1.5 0.95 1.8264 1.5 
0.95 1.87728 1.5 0.95 1.92793 1.5 0.95 1.97746 1.5 
0.95 2.02474 1.5 0.95 2.06898 1.5 0.95 2.11035 1.5 
0.95 -0.960275 1.5 0.95 -0.918776 1.5 0.95 -0.874279 1.5 
0.95 -0.826508 1.5 0.95 -0.776094 1.5 0.95 -0.724038 1.5 
0.95 -0.671127 1.5 0.95 -0.617757 1.5 0.95 -0.564088 1.5 
0.95 0.267215 1.5 0.95 0.31946 1.5 0.95 0.371324 1.5 
0.95 0.47371 1.5 0.95 0.422736 1.5 0.95 0.524323 1.5 
0.95 0.574675 1.5 0.95 0.624858 1.5 0.95 0.674944 1.5 
0.95 0.724981 1.5 0.95 0.774995 1.5 0.95 0.825 1.5 
0.95 0.875001 1.5 0.95 0.925001 1.5 0.95 0.975001 1.5 
0.95 1.025 1.5 0.95 1.075 1.5 0.95 1.125 1.5 
0.95 1.175 1.5 0.95 1.225 1.5 0.95 1.275 1.5 
0.95 1.325 1.5 0.95 2.15 1.5 -0.6128 2.15 1.5 
-0.6628 2.15 1.5 -0.5628 2.15 1.5 -0.5128 2.15 1.5 
-0.4628 2.15 1.5 -0.4128 2.15 1.5 -0.3628 2.15 1.5 
-0.3128 2.15 1.5 -0.2628 2.15 1.5 -0.2128 2.15 1.5 
-0.1628 2.15 1.5 -0.1128 2.15 1.5 -0.0627998 2.15 1.5 
-0.0128002 2.15 1.5 0.0371998 2.15 1.5 0.0872002 2.15 1.5 
0.1372 2.15 1.5 0.1872 2.15 1.5 0.2372 2.15 1.5 
0.2872 2.15 1.5 0.337202 2.15 1.5 0.387208 2.15 1.5 
0.437225 2.15 1.5 0.48727 2.15 1.5 0.537371 2.15 1.5 
0.587563 2.15 1.5 0.637834 2.15 1.5 0.688007 2.15 1.5 
0.737567 2.15 1.5 0.785588 2.15 1.5 0.831004 2.15 1.5 
0.873194 2.15 1.5 0.912458 2.15 1.5 -2.2147 2.15 1.5 
-2.25821 2.15 1.5 -2.16839 2.15 1.5 -2.11925 2.15 1.5 
-2.06821 2.15 1.5 -2.01649 2.15 1.5 -1.96494 2.15 1.5 
-1.91389 2.15 1.5 -1.86329 2.15 1.5 -1.813 2.15 1.5 
-1.76287 2.15 1.5 -1.71282 2.15 1.5 -1.66281 2.15 1.5 
-1.6128 2.15 1.5 -1.5628 2.15 1.5 -1.5128 2.15 1.5 
-1.4628 2.15 1.5 -1.4128 2.15 1.5 -1.3628 2.15 1.5 
-1.3128 2.15 1.5 -1.2628 2.15 1.5 -1.2128 2.15 1.5 
-1.1628 2.15 1.5 -1.1128 2.15 1.5 -1.0628 2.15 1.5 
-1.0128 2.15 1.5 -0.9628 2.15 1.5 -0.9128 2.15 1.5 
-0.8628 2.15 1.5 -0.8128 2.15 1.5 -0.7628 2.15 1.5 
-0.7128 2.15 1.5 -2.25804 -0.960676 1.5 0.913495 -0.960842 1.5 
0.913487 2.1109 1.5 0.915176 -0.775269 1.5 0.915166 -0.724053 1.5 
0.915145 -0.672259 1.5 0.915172 -0.620144 1.5 0.9152 -0.568091 1.5 
0.915082 -0.517102 1.5 0.914943 -0.467871 1.5 0.914926 -0.419593 1.5 
0.914919 -0.37129 1.5 0.914909 -0.32266 1.5 0.914899 -0.273645 1.5 
0.914892 -0.224305 1.5 0.914889 -0.174745 1.5 0.91489 -0.125084 1.5 
0.914893 -0.07544 1.5 0.914898 -0.0259199 1.5 0.914906 0.023387 1.5 
0.914914 0.0724312 1.5 0.91492 0.121247 1.5 0.914931 0.170039 1.5 
0.915023 0.219465 1.5 0.915097 0.270047 1.5 0.915065 0.321277 1.5 
0.915021 0.372469 1.5 0.914984 0.423416 1.5 0.914956 0.474081 1.5 
0.914421 2.06918 1.5 0.914856 2.02405 1.5 0.915036 1.97614 1.5 
0.9151 1.92658 1.5 0.915051 1.87632 1.5 0.914977 1.8259 1.5 
0.914941 1.77551 1.5 0.914923 1.72525 1.5 0.914913 1.67511 1.5 
0.914907 1.62504 1.5 0.914904 1.57502 1.5 0.914903 1.525 1.5 
0.914903 1.475 1.5 0.914902 1.425 1.5 0.914902 1.375 1.5 
0.914903 1.325 1.5 0.914903 1.275 1.5 0.914903 1.225 1.5 
0.914903 1.175 1.5 0.914903 1.125 1.5 0.914903 1.075 1.5 
0.914903 1.025 1.5 0.914903 0.975001 1.5 0.914903 0.925001 1.5 
0.914903 0.875001 1.5 0.914903 0.824999 1.5 0.914903 0.774994 1.5 
0.914904 0.724982 1.5 0.914907 0.674952 1.5 0.914912 0.624886 1.5 
0.914921 0.574753 1.5 0.914936 0.524506 1.5 0.915084 -0.825445 1.5 
0.914884 -0.873706 1.5 0.914437 -0.919028 1.5 0.875593 1.175 1.5 
0.875592 1.225 1.5 -2.21378 -0.961154 1.5 -2.16653 -0.961341 1.5 
-2.117 -0.961375 1.5 -2.06628 -0.961375 1.5 -2.01521 -0.961358 1.5 
-1.96426 -0.961327 1.5 -1.91358 -0.961294 1.5 -1.86318 -0.961267 1.5 
-1.81297 -0.961249 1.5 -1.76287 -0.961239 1.5 -1.71282 -0.961235 1.5 
-1.66281 -0.961233 1.5 -1.6128 -0.961232 1.5 -1.5628 -0.961232 1.5 
-1.5128 -0.961232 1.5 -1.4628 -0.961232 1.5 -1.4128 -0.961232 1.5 
-1.3628 -0.961232 1.5 -1.3128 -0.961232 1.5 -1.2628 -0.961232 1.5 
-1.2128 -0.961232 1.5 -1.1628 -0.961232 1.5 -1.1128 -0.961232 1.5 
-1.0628 -0.961232 1.5 -1.0128 -0.961232 1.5 -0.9628 -0.961232 1.5 
-0.9128 -0.961232 1.5 -0.8628 -0.961232 1.5 -0.8128 -0.961232 1.5 
-0.7628 -0.961232 1.5 -0.7128 -0.961232 1.5 -0.6628 -0.961232 1.5 
-0.6128 -0.961232 1.5 -0.5628 -0.961232 1.5 -0.5128 -0.961232 1.5 
-0.4628 -0.961232 1.5 -0.4128 -0.961232 1.5 -0.3628 -0.961232 1.5 
-0.3128 -0.961232 1.5 -0.2628 -0.961232 1.5 -0.2128 -0.961232 1.5 
-0.1628 -0.961232 1.5 -0.1128 -0.961232 1.5 -0.0627999 -0.961232 1.5 
-0.0128 -0.961232 1.5 0.0372 -0.961232 1.5 0.0872 -0.961232 1.5 
0.1372 -0.961232 1.5 0.1872 -0.961232 1.5 0.2372 -0.961232 1.5 
0.287201 -0.961232 1.5 0.337203 -0.961232 1.5 0.387208 -0.961233 1.5 
0.437223 -0.961235 1.5 0.487257 -0.961238 1.5 0.537324 -0.961243 1.5 
0.587433 -0.961247 1.5 0.637556 -0.961245 1.5 0.68756 -0.961228 1.5 
0.7371 -0.961207 1.5 0.785476 -0.961231 1.5 0.831609 -0.961316 1.5 
0.8744 -0.96128 1.5 -2.25804 2.11068 1.5 0.874392 2.11131 1.5 
0.831605 2.11133 1.5 0.785475 2.11123 1.5 0.7371 2.11121 1.5 
0.68756 2.11123 1.5 0.637556 2.11124 1.5 0.587433 2.11125 1.5 
0.537324 2.11124 1.5 0.487257 2.11124 1.5 0.437223 2.11123 1.5 
0.387208 2.11123 1.5 0.337203 2.11123 1.5 0.287201 2.11123 1.5 
0.2372 2.11123 1.5 0.1872 2.11123 1.5 0.1372 2.11123 1.5 
0.0872 2.11123 1.5 0.0372 2.11123 1.5 -0.0128 2.11123 1.5 
-0.0628 2.11123 1.5 -0.1128 2.11123 1.5 -0.1628 2.11123 1.5 
-0.2128 2.11123 1.5 -0.2628 2.11123 1.5 -0.3128 2.11123 1.5 
-0.3628 2.11123 1.5 -0.4128 2.11123 1.5 -0.4628 2.11123 1.5 
-0.5128 2.11123 1.5 -0.5628 2.11123 1.5 -0.6128 2.11123 1.5 
-0.6628 2.11123 1.5 -0.7128 2.11123 1.5 -0.7628 2.11123 1.5 
-0.8128 2.11123 1.5 -0.8628 2.11123 1.5 -0.9128 2.11123 1.5 
-0.9628 2.11123 1.5 -1.0128 2.11123 1.5 -1.0628 2.11123 1.5 
-1.1128 2.11123 1.5 -1.1628 2.11123 1.5 -1.2128 2.11123 1.5 
-1.2628 2.11123 1.5 -1.3128 2.11123 1.5 -1.3628 2.11123 1.5 
-1.4128 2.11123 1.5 -1.4628 2.11123 1.5 -1.5128 2.11123 1.5 
-1.5628 2.11123 1.5 -1.6128 2.11123 1.5 -1.66281 2.11123 1.5 
-1.71282 2.11123 1.5 -1.76287 2.11124 1.5 -1.81297 2.11125 1.5 
-1.86318 2.11127 1.5 -1.91358 2.11129 1.5 -1.96426 2.11133 1.5 
-2.01521 2.11136 1.5 -2.06628 2.11138 1.5 -2.117 2.11137 1.5 
-2.16653 2.11134 1.5 -2.21378 2.11115 1.5 -2.25791 2.06896 1.5 
-2.25758 2.02392 1.5 -2.2574 1.97609 1.5 -2.25736 1.92655 1.5 
-2.2573 1.87625 1.5 -2.25723 1.82573 1.5 -2.25721 1.77516 1.5 
-2.2572 1.72466 1.5 -2.25719 1.67424 1.5 -2.25717 1.62397 1.5 
-2.25716 1.58822 1.5 -2.25715 1.57388 1.5 -2.25712 1.52399 1.5 
-2.25711 1.47421 1.5 -2.25711 1.42448 1.5 -2.25711 1.37475 1.5 
-2.25711 1.32501 1.5 -2.25711 1.29658 1.5 -2.25711 1.27525 1.5 
-2.25712 1.22548 1.5 -2.25714 1.17571 1.5 -2.25717 1.1259 1.5 
-2.25721 1.07605 1.5 -2.25724 1.02613 1.5 -2.25725 0.976097 1.5 
-2.25724 0.925952 1.5 -2.25721 0.87573 1.5 -2.25719 0.825499 1.5 
-2.25716 0.775306 1.5 -2.25715 0.725172 1.5 -2.25714 0.675088 1.5 
-2.25713 0.625041 1.5 -2.25713 0.575018 1.5 -2.25713 0.525007 1.5 
-2.25713 0.475003 1.5 -2.25713 0.425001 1.5 -2.25713 0.375 1.5 
-2.25713 0.325 1.5 -2.25713 0.275 1.5 -2.25713 0.225 1.5 
-2.25713 0.175 1.5 -2.25713 0.125 1.5 -2.25713 0.075 1.5 
-2.25713 0.025 1.5 -2.25713 -0.0249999 1.5 -2.25713 -0.075 1.5 
-2.25713 -0.125 1.5 -2.25713 -0.175 1.5 -2.25713 -0.225 1.5 
-2.25713 -0.275 1.5 -2.25713 -0.325001 1.5 -2.25713 -0.375005 1.5 
-2.25713 -0.425016 1.5 -2.25713 -0.475045 1.5 -2.25714 -0.525113 1.5 
[...]
CELL_DATA 1978
SCALARS p float
LOOKUP_TABLE default
-14.8332 -14.8259 -14.96 -14.8217 -14.8206 -14.8194 -14.8174 -14.8135 -14.8117 
-14.8128 -14.8156 -14.96 -14.96 -14.8343 -14.833 -14.4021 -14.4021 -14.402 
-14.4019 -14.4017 -14.4015 -14.4014 -14.4012 -14.401 -14.4008 -14.4005 -14.4003 
-14.4001 -14.3998 -14.3996 -14.3994 -14.3991 -14.3989 -14.3986 -14.3984 -14.3981 
-14.3979 -14.3977 -14.3974 -14.3972 -14.3969 -14.3967 -14.3964 -14.3962 -14.396 
-14.3957 -14.3955 -14.3952 -14.395 -14.3947 -14.3945 -14.3943 -14.394 -14.3938 
-14.3936 -14.3933 -14.3931 -14.3929 -14.3927 -14.3925 -14.3923 -14.3921 -14.3919 
-14.3918 -14.3916 -14.3915 -14.3913 -14.3912 -14.3911 -14.391 -14.3908 -14.3907 
-14.3905 -14.3901 -14.3896 -14.3899 -14.3878 -14.3805 -14.3802 -14.4022 -14.3965 
-14.4022 -14.4023 -14.4024 -14.4026 -14.4027 -14.403 -14.4032 -14.4035 -14.4038 
-14.4042 -14.4046 -14.4051 -14.4055 -14.4061 -14.4066 -14.4073 -14.408 -14.4087 
-14.4095 -14.4104 -14.4114 -14.4125 -14.4137 -14.415 -14.4164 -14.4179 -14.4196 
-14.4214 -14.4234 -14.9086 -14.9104 -14.9122 -14.9136 -14.9145 -14.9143 -14.9124 
-14.9082 -14.9015 -14.893 -14.9107 -14.9975 -14.9941 -15.0059 -15.0103 -14.9626 
-14.6214 -14.6345 -14.9484 -14.5097 -14.4074 -14.3765 -14.4056 -14.4153 -14.9015 
-14.8944 -14.8922 -14.892 -14.8908 -14.8876 -14.3854 -14.8829 -14.3615 -14.3437 
-14.3408 -14.4022 -14.3524 -14.4145 -14.4139 -14.4102 -14.3948 -14.3626 -14.332 
-14.3266 -14.3459 -14.3794 -14.4182 -14.4402 -14.4486 -14.4463 -14.438 -14.4261 
-14.4157 -14.4184 -14.4256 -14.4361 -14.9227 -14.9025 -14.8695 -14.8501 -14.8444 
-14.8909 -14.9143 -14.9258 -14.93 -14.9242 -14.4191 -14.3764 -14.3391 -14.3408 
-14.3628 -14.3804 -14.3951 -14.4049 -14.4099 -14.4121 -14.4132 -14.4139 -14.4145 
-14.4148 -14.415 -14.4151 -14.415 -14.4148 -14.4126 -14.4031 -14.4078 -14.4077 
-14.4077 -14.4077 -14.4077 -14.4077 -14.4077 -14.4077 -14.4077 -14.4077 -14.4077 
-14.4076 -14.4075 -14.4074 -14.4072 -14.407 -14.4066 -14.4061 -14.4052 -14.4008 
-14.3867 -14.3633 -14.3415 -14.3401 -14.3594 -14.389 -14.4149 -14.4279 -14.4267 
-14.4146 -14.4024 -14.402 -14.3908 -14.4253 -14.4504 -14.4605 -14.4491 -14.4138 
-14.361 -14.308 -14.287 -14.3041 -14.3437 -14.3821 -14.4042 -14.4112 -14.4126 
-14.4131 -14.4132 -14.413 -14.4127 -14.4122 -14.4117 -14.4112 -14.4107 -14.4102 
-14.4098 -14.4094 -14.4091 -14.4088 -14.4086 -14.4083 -14.4081 -14.408 -14.3686 
-14.4031 -14.4023 -14.3906 -14.4238 -14.8988 -14.8722 -14.8357 -14.8162 -14.8215 
-14.8365 -14.8359 -14.8572 -14.8296 -14.8266 -14.825 -14.8211 -14.8165 -14.8164 
-14.8157 -14.8224 -14.8499 -14.8605 -14.8494 -14.8386 -14.8852 -14.9002 -14.8978 
-14.9074 -14.9044 -14.4327 -14.4199 -14.4287 -14.4288 -14.4199 -14.3971 -14.3589 
-14.3321 -14.3142 -14.3572 -14.4261 -14.4646 -14.4298 -14.4044 -14.4033 -14.4034 
-14.4036 -14.4036 -14.4035 -14.4034 -14.403 -14.4026 -14.4019 -14.4015 -14.4032 
-14.4122 -14.4167 -14.3999 -14.3877 -14.3575 -14.3439 -14.3758 -14.406 -14.4207 
-14.4126 -14.4002 -14.3929 -14.4033 -14.4022 -14.4021 -14.402 -14.4019 -14.4018 
-14.4016 -14.4014 -14.4012 -14.401 -14.4008 -14.4006 -14.4003 -14.4001 -14.3999 
-14.3996 -14.3994 -14.3992 -14.3989 -14.3987 -14.3984 -14.3982 -14.3979 -14.3977 
-14.3975 -14.3972 -14.397 -14.3967 -14.3965 -14.3962 -14.396 -14.3958 -14.3955 
-14.3953 -14.395 -14.3948 -14.3945 -14.3943 -14.3941 -14.3938 -14.3936 -14.3934 
-14.3932 -14.3929 -14.3927 -14.3925 -14.3923 -14.3921 -14.392 -14.3918 -14.3917 
-14.3915 -14.3914 -14.3913 -14.3912 -14.3911 -14.3909 -14.3908 -14.3906 -14.3903 
-14.3899 -14.3904 -14.3885 -14.3809 -14.3804 -14.3557 -14.4072 -14.4047 -14.4224 
-14.4286 -14.4167 -14.3977 -14.3691 -14.3441 -14.3429 -14.3665 -14.4184 -14.4538 
-14.4389 -14.4063 -14.3991 -14.3988 -14.3982 -14.398 -14.3978 -14.3976 -14.3975 
-14.3972 -14.3972 -14.397 -14.397 -14.3969 -14.3969 -14.3968 -14.397 -14.397 
-14.3971 -14.3971 -14.3974 -14.3976 -14.398 -14.3983 -14.3988 -14.3993 -14.3999 
-14.4005 -14.4012 -14.402 -14.4028 -14.4037 -14.4047 -14.4056 -14.4067 -14.4078 
-14.4091 -14.4112 -14.4204 -14.4772 -14.4815 -14.4156 -14.3328 -14.2824 -14.2881 
-14.3386 -14.3932 -14.431 -14.4462 -14.4421 -14.4466 -14.4324 -14.363 -14.3666 
-14.3832 -14.4032 -14.8979 -14.9005 -14.8997 -14.8968 -14.8942 -14.8948 -14.9012 
-14.4146 -14.4291 -14.4112 -14.3577 -14.3669 -14.4862 -14.8988 -14.5363 -14.9227 
-15.0251 -14.9873 -14.9784 -14.983 -14.9172 -14.9041 -14.904 -14.9093 -14.9131 
-14.9147 -14.9147 -14.9137 -14.9122 -14.9105 -14.9086 -14.4234 -14.4215 -14.4197 
-14.418 -14.4164 -14.415 -14.4137 -14.4126 -14.4115 -14.4105 -14.4096 -14.4088 
-14.408 -14.4073 -14.4067 -14.4061 -14.4056 -14.4051 -14.4047 -14.4043 -14.4039 
-14.4036 -14.4033 -14.403 -14.4028 -14.4026 -14.4025 -14.4024 -14.4023 -14.3834 
-14.3933 -14.3948 -14.3849 -14.3871 -14.4023 -14.4072 -14.4069 -14.3972 -14.3897 
-14.3963 -14.6353 -14.3863 -14.3841 -14.385 -14.4089 -14.4112 -14.3994 -14.4018 
-14.6397 -14.3865 -14.3882 -14.6381 -14.4005 -14.3999 -14.3964 -14.3952 -14.4089 
-14.4039 -14.3953 -14.3847 -14.643 -14.3995 -14.3952 -14.381 -14.3939 -14.395 
-14.6457 -14.395 -14.4108 -14.4133 -14.6455 -14.3943 -14.3931 -14.4015 -14.4026 
-14.3933 -14.6455 -14.3936 -14.403 -14.4032 -14.4011 -14.3928 -14.4038 -14.4031 
-14.3911 -14.6414 -14.6418 -14.4062 -14.3906 -14.3885 -14.4029 -14.6431 -14.3928 
-14.3936 -14.4015 -14.4013 -14.6433 -14.3928 -14.3913 -14.3995 -14.4074 -14.3965 
-14.3967 -14.3963 -14.3961 -14.397 -14.3974 -14.6426 -14.3897 -14.3977 -14.3978 
-14.3902 -14.6408 -14.6432 -14.643 -14.6442 -14.6453 -14.6461 -14.6449 -14.6425 
-14.6426 -14.3891 -14.642 -14.3893 -14.6429 -14.6435 -14.643 -14.6426 -14.6422 
-14.6421 -14.6417 -14.396 -14.396 -14.396 -14.396 -14.6412 -14.3965 -14.3968 
-14.3887 -14.6415 -14.3886 -14.3884 -14.3964 -14.3962 -14.3883 -14.3881 -14.3959 
-14.396 -14.396 -14.396 -14.3961 -14.3961 -14.3962 -14.3961 -14.3881 -14.641 
-14.6409 -14.388 -14.3881 -14.6418 -14.6421 -14.6425 -14.6437 -14.6433 -14.6441 
-14.6446 -14.6455 -14.6465 -14.6459 -14.4034 -14.3939 -14.3937 -14.6469 -14.6459 
-14.4034 -14.394 -14.6461 -14.394 -14.3938 -14.4032 -14.4028 -14.3935 -14.646 
-14.6453 -14.3923 -14.3931 -14.4023 -14.4016 -14.4008 -14.6442 -14.3917 -14.3907 
-14.3999 -14.3988 -14.3902 -14.6432 -14.3982 -14.3901 -14.3905 -14.3959 -14.3959 
-14.3959 -14.3959 -14.641 -14.396 -14.396 -14.388 -14.6409 -14.388 -14.388 
-14.396 -14.396 -14.3881 -14.3881 -14.3959 -14.396 -14.396 -14.3962 -14.3963 
-14.6415 -14.3962 -14.3961 -14.3961 -14.6423 -14.6471 -14.6461 -14.6459 -14.6469 
-14.6462 -14.6453 -14.6443 -14.6439 -14.6439 -14.6449 -14.645 -14.6448 -14.6437 
-14.6432 -14.6425 -14.3947 -14.3905 -14.3916 -14.6425 -14.6402 -14.3925 -14.3837 
-14.3809 -14.3924 -14.3931 -14.3965 -14.3963 -14.3965 -14.3967 -14.6419 -14.3886 
-14.3885 -14.3883 -14.3882 -14.6412 -14.6412 -14.6425 -14.643 -14.6428 -14.6432 
-14.6426 -14.6426 -14.6431 -14.6429 -14.6424 -14.6452 -14.6443 -14.6431 -14.6401 
-14.6418 -14.6426 -14.644 -14.6404 -14.6384 -14.6416 -14.6425 -14.6434 -14.6424 
-14.6411 -14.6405 -14.6392 -14.6397 -14.6419 -14.6414 -14.6406 -14.641 -14.6419 
-14.4047 -14.3969 -14.3967 -14.3969 -14.3972 -14.3972 -14.3975 -14.3979 -14.3983 
-14.3989 -14.3984 -14.6434 -14.3902 -14.3979 -14.3975 -14.3898 -14.3894 -14.6426 
-14.3891 -14.3889 -14.641 -14.6411 -14.6413 -14.6415 -14.6413 -14.6417 -14.6415 
-14.6414 -14.6414 -14.6411 -14.6409 -14.6409 -14.6411 -14.6397 -14.64 -14.6389 
-14.6387 -14.3917 -14.8875 -14.8917 -14.394 -14.4049 -14.4074 -14.3875 -14.6327 
-14.3817 -14.8756 -14.8401 -14.8515 -14.8511 -14.6285 -14.3735 -14.3585 -14.3521 
-14.6205 -14.8589 -14.3534 -14.8666 -14.8468 -14.8437 -14.8658 -14.6217 -14.8623 
-14.8377 -14.83 -14.8583 -14.8254 -14.8275 -14.8256 -14.8269 -14.8547 -14.856 
-14.6177 -14.8538 -14.616 -14.8541 -14.8547 -14.6385 -14.6374 -14.6388 -14.6376 
-14.6355 -14.6317 -14.6319 -14.6303 -14.6257 -14.6287 -14.6248 -14.6251 -14.6211 
-14.6219 -14.6201 -14.6213 -14.624 -14.6362 -14.6378 -14.6381 -14.6365 -14.6344 
-14.6316 -14.6323 -14.6344 -14.6347 -14.6362 -14.6376 -14.6376 -14.6364 -14.6351 
-14.6338 -14.6331 -14.6409 -14.6411 -14.6413 -14.6414 -14.6416 -14.6419 -14.6416 
-14.642 -14.6416 -14.6421 -14.6419 -14.6417 -14.642 -14.6422 -14.6422 -14.6422 
-14.6419 -14.642 -14.6418 -14.6417 -14.6416 -14.6416 -14.6418 -14.6419 -14.6417 
-14.6418 -14.642 -14.6424 -14.6422 -14.6428 -14.6424 -14.643 -14.6417 -14.6417 
-14.6418 -14.6419 -14.6421 -14.6421 -14.6418 -14.6416 -14.6412 -14.6415 -14.6415 
-14.6417 -14.6419 -14.6416 -14.6413 -14.6412 -14.641 -14.6402 -14.6408 -14.6407 
-14.6386 -14.6394 -14.6395 -14.6403 -14.6386 -14.6376 -14.6402 -14.6407 -14.6413 
-14.6419 -14.6416 -14.6421 -14.6408 -14.6412 -14.6409 -14.6404 -14.6399 -14.6396 
-14.6389 -14.6387 -14.6395 -14.6401 -14.6426 -14.6428 -14.6437 -14.6449 -14.6445 
-14.3908 -14.3913 -14.392 -14.3994 -14.3988 -14.3995 -14.4002 -14.646 -14.3927 
-14.3935 -14.4 -14.4006 -14.4017 -14.4009 -14.3943 -14.6477 -14.6484 -14.6465 
-14.3953 -14.6498 -14.3962 -14.4035 -14.402 -14.4013 -14.4026 -14.3974 -14.4045 
-14.4027 -14.4033 -14.4054 -14.3984 -14.6522 -14.6534 -14.6507 -14.6434 -14.644 
-14.6431 -14.6435 -14.6446 -14.645 -14.6439 -14.6441 -14.4038 -14.404 -14.4039 
-14.4118 -14.4102 -14.4083 -14.655 -14.4007 -14.4073 -14.4064 -14.3997 -14.6444 
-14.6452 -14.6468 -14.6458 -14.6476 -14.6498 -14.6515 -14.6489 -14.6501 -14.6589 
-14.6559 -14.6526 -14.6548 -14.6569 -14.6465 -14.6459 -14.6477 -14.6485 -14.651 
-14.6543 -14.653 -14.6587 -14.6618 -14.6643 -14.6713 -14.4309 -14.4262 -14.4056 
-14.3934 -14.4229 -14.4209 -14.6612 -14.4104 -14.4192 -14.4147 -14.4069 -14.4041 
-14.658 -14.4024 -14.4133 -14.663 -14.4152 -14.664 -14.6565 -14.6598 -14.6627 
-14.6425 -14.6432 -14.6432 -14.6425 -14.6424 -14.6428 -14.6431 -14.6317 -14.6304 
-14.6286 -14.6264 -14.6291 -14.6304 -14.6327 -14.6317 -14.631 -14.6413 -14.6418 
-14.6425 -14.642 -14.6415 -14.6453 -14.6453 -14.6441 -14.6438 -14.644 -14.6453 
-14.645 -14.6466 -14.6491 -14.6489 -14.6468 -14.647 -14.6469 -14.6491 -14.6487 
-14.6402 -14.6397 -14.6392 -14.6408 -14.6402 -14.6409 -14.6396 -14.6245 -14.6273 
-14.6268 -14.6306 -14.629 -14.6294 -14.6319 -14.6366 -14.6368 -14.6377 -14.6379 
-14.6382 -14.6375 -14.6371 -14.6363 -14.6351 -14.6359 -14.6355 -14.6345 -14.6336 
-14.6328 -14.6336 -14.6343 -14.6349 -14.6368 -14.6361 -14.6356 -14.4147 -14.3907 
-14.3984 -14.4094 -14.4155 -14.4195 -14.4234 -14.4241 -14.4243 -14.4116 -14.6613 
-14.6568 -14.4076 -14.4025 -14.4 -14.4162 -14.4086 -14.4021 -14.4024 -14.408 
-14.4144 -14.6631 -14.6695 -14.664 -14.6599 -14.6639 -14.6679 -14.6796 -14.675 
-14.6819 -14.6776 -14.6693 -14.6677 -14.6747 -14.6857 -14.6434 -14.6446 -14.6441 
-14.6429 -14.6424 -14.6418 -14.6428 -14.6435 -14.6449 -14.6456 -14.6462 -14.6482 
-14.6475 -14.6457 -14.6466 -14.6514 -14.6556 -14.6552 -14.6516 -14.6519 -14.6518 
-14.6554 -14.6548 -14.6591 -14.6665 -14.6659 -14.6598 -14.6603 -14.66 -14.6659 
-14.6526 -14.6538 -14.6507 -14.6498 -14.6487 -14.6513 -14.6498 -14.6476 -14.6225 
-14.8363 -14.8329 -14.8306 -14.8557 -14.6173 -14.6214 -14.8581 -14.8618 -14.8442 
-14.8651 -14.8454 -14.8488 -14.8666 -14.6253 -14.3634 -14.3668 -14.849 -14.8583 
-14.6288 -14.3744 -14.381 -14.8707 -14.8829 -14.8907 -14.4053 -14.4042 -14.3862 
-14.6317 -14.6303 -14.3858 -14.3874 -14.3825 -14.3979 -14.388 -14.3842 -14.3872 
-14.3827 -14.3809 -14.3904 -14.3905 -14.6228 -14.6254 -14.6266 -14.6318 -14.63 
-14.6278 -14.6297 -14.6299 -14.6282 -14.6272 -14.6248 -14.6264 -14.6282 -14.6294 
-14.6306 -14.6313 -14.6309 -14.6306 -14.6292 -14.6297 -14.6305 -14.6314 -14.632 
-14.632 -14.6322 -14.6312 -14.6315 -14.6333 -14.6333 -14.6325 -14.3902 -14.3816 
-14.3817 -14.3903 -14.3904 -14.3901 -14.3903 -14.3905 -14.3907 -14.3816 -14.3815 
-14.388 -14.382 -14.381 -14.3906 -14.3907 -14.3908 -14.3816 -14.3814 -14.6315 
-14.6324 -14.6327 -14.6331 -14.6325 -14.3821 -14.3908 -14.3815 -14.3817 -14.391 
-14.3912 -14.3908 -14.391 -14.3911 -14.3913 -14.3823 -14.3916 -14.3914 -14.3911 
-14.3818 -14.382 -14.3912 -14.3914 -14.3916 -14.3917 -14.3919 -14.6322 -14.6331 
-14.6328 -14.6336 -14.6355 -14.635 -14.6343 -14.6339 -14.6346 -14.6343 -14.6386 
-14.639 -14.6384 -14.6379 -14.6373 -14.6378 -14.6372 -14.6366 -14.6361 -14.6367 
-14.6362 -14.6356 -14.6352 -14.6359 -14.635 -14.6356 -14.6362 -14.6403 -14.6397 
-14.639 -14.6378 -14.6384 -14.6391 -14.6385 -14.6405 -14.6414 -14.6421 -14.6411 
-14.6425 -14.6438 -14.6448 -14.6433 -14.6441 -14.6645 -14.6626 -14.6594 -14.6573 
-14.6557 -14.403 -14.4025 -14.9022 -14.4064 -14.4085 -14.4118 -14.403 -14.3991 
-14.4176 -14.9019 -14.9073 -14.9082 -14.899 -14.897 -14.673 -14.664 -14.6683 
-14.677 -14.6848 -14.68 -14.6837 -14.6877 -14.6897 -14.6873 -14.907 -14.9114 
-14.9084 -14.6595 -14.8967 -14.8986 -14.9037 -14.9158 -14.6676 -14.4192 -14.4136 
-14.4158 -14.6739 -14.4293 -14.4415 -14.4261 -14.69 -14.6741 -14.6734 -14.6824 
-14.6833 -14.6908 -14.6712 -14.6732 -14.6817 -14.6789 -14.6868 -14.6902 -14.6918 
-14.6935 -14.6899 -14.6859 -14.6926 -14.6577 -14.6561 -14.6603 -14.6578 -14.6555 
-14.6524 -14.6543 -14.6429 -14.6401 -14.6407 -14.6398 -14.6392 -14.638 -14.6373 
-14.6369 -14.6375 -14.6371 -14.6365 -14.6368 -14.6366 -14.6328 -14.6327 -14.6318 
-14.6319 -14.6323 -14.633 -14.6333 -14.6327 -14.6335 -14.6331 -14.6336 -14.634 
-14.6345 -14.6471 -14.6484 -14.6464 -14.6453 -14.6443 -14.6433 -14.6421 -14.641 
-14.6418 -14.6404 -14.639 -14.6395 -14.6387 -14.6382 -14.6378 -14.6385 -14.6381 
-14.6375 -14.6335 -14.6335 -14.6342 -14.6342 -14.6343 -14.6354 -14.6354 -14.6348 
-14.6348 -14.6348 -14.3919 -14.3827 -14.3824 -14.3917 -14.3921 -14.3829 -14.3831 
-14.3923 -14.3925 -14.6336 -14.6339 -14.6345 -14.635 -14.6356 -14.6354 -14.636 
-14.6365 -14.636 -14.636 -14.6619 -14.6819 -14.6751 -14.6684 -14.6706 -14.6652 
-14.4595 -14.4503 -14.436 -14.4395 -14.6764 -14.3461 -14.6729 -14.6773 -14.6808 
-14.6872 -14.6907 -14.6945 -14.6933 -14.687 -14.6868 -14.9353 -14.8933 -14.8437 
-14.946 -14.3978 -14.3929 -14.3651 -14.924 -14.6764 -14.9176 -14.9577 -14.927 
-14.9421 -14.9523 -14.9515 -14.9656 -14.9508 -14.9231 -14.688 -14.6874 -14.6805 
-14.6689 -14.6741 -14.6705 -14.676 -14.6662 -14.6588 -14.6624 -14.6658 -14.3833 
-14.3836 -14.3928 -14.3925 -14.3927 -14.3929 -14.6413 -14.6407 -14.6398 -14.6393 
-14.6401 -14.6396 -14.6389 -14.6373 -14.6371 -14.6377 -14.6379 -14.6386 -14.6427 
-14.6436 -14.6447 -14.6458 -14.6475 -14.649 -14.6507 -14.6532 -14.6512 -14.6494 
-14.6461 -14.6478 -14.6449 -14.6464 -14.6451 -14.6439 -14.6413 -14.6419 -14.641 
-14.6416 -14.6424 -14.6765 -14.683 -14.6889 -14.6899 -14.6828 -14.671 -14.9153 
-14.9132 -14.91 -14.9078 -14.924 -14.6841 -14.9254 -14.9265 -14.6814 -14.9271 
-14.9159 -14.6722 -14.6774 -14.6775 -14.9265 -14.9218 -14.9237 -14.9254 -14.9154 
-14.6727 -14.9141 -14.9124 -14.9198 -14.656 -14.6589 -14.656 -14.6535 -14.6514 
-14.6495 -14.6513 -14.6535 -14.6555 -14.6644 -14.6618 -14.6584 -14.6605 -14.6573 
-14.6546 -14.653 -14.6509 -14.6633 -14.6675 -14.6663 -14.6622 -14.6588 -14.6598 
-14.6568 -14.6559 -14.6535 -14.6465 -14.6479 -14.6494 -14.6478 -14.6492 -14.6504 
-14.6523 -14.6441 -14.643 -14.6422 -14.6359 -14.6357 -14.6352 -14.6347 -14.6341 
-14.6349 -14.393 -14.3838 -14.384 -14.3932 -14.3933 -14.3931 -14.3923 -14.3921 
-14.3936 -14.6354 -14.6361 -14.6366 -14.6365 -14.6384 -14.6393 -14.639 -14.6389 
-14.6388 -14.6383 -14.6383 -14.6377 -14.6371 -14.6372 -14.6369 -14.6368 -14.6362 
-14.6364 -14.3939 -14.3847 -14.3845 -14.3842 -14.3934 -14.3937 -14.3938 -14.394 
-14.3943 -14.3942 -14.385 -14.3852 -14.3855 -14.3944 -14.3947 -14.3949 -14.3857 
-14.386 -14.3951 -14.3952 -14.3947 -14.3945 -14.395 -14.6377 -14.6378 -14.6373 
-14.6374 -14.6379 -14.6384 -14.639 -14.6389 -14.6383 -14.6404 -14.64 -14.9106 
-14.9087 -14.6681 -14.4164 -14.4256 -14.6432 -14.6443 -14.6454 -14.6465 -14.6453 
-14.6464 -14.664 -14.4123 -14.4143 -14.4235 -14.4215 -14.4196 -14.6604 -14.4104 
-14.4087 -14.418 -14.4164 -14.4072 -14.6574 -14.4058 -14.415 -14.4137 -14.6515 
-14.6522 -14.6543 -14.6548 -14.4125 -14.4033 -14.4045 -14.4114 -14.6527 -14.4022 
-14.4012 -14.4105 -14.6397 -14.6404 -14.6408 -14.6416 -14.6425 -14.642 -14.6412 
-14.6408 -14.6394 -14.6395 -14.6402 -14.64 -14.6407 -14.6413 -14.6416 -14.3955 
-14.387 -14.3867 -14.3865 -14.3956 -14.3954 -14.3862 -14.3959 -14.3957 -14.396 
-14.3962 -14.6395 -14.6394 -14.64 -14.64 -14.6406 -14.6411 -14.6411 -14.6405 
-14.3877 -14.3964 -14.3872 -14.3875 -14.3966 -14.3969 -14.3971 -14.388 -14.3961 
-14.3882 -14.3974 -14.3976 -14.3885 -14.3888 -14.389 -14.3981 -14.3979 -14.3979 
-14.3967 -14.3964 -14.3972 -14.3969 -14.4096 -14.4003 -14.6477 -14.6488 -14.6474 
-14.649 -14.6504 -14.6498 -14.6483 -14.6463 -14.3982 -14.3984 -14.3986 -14.3895 
-14.3893 -14.3984 -14.3974 -14.3977 -14.3988 -14.6428 -14.6435 -14.6444 -14.6437 
-14.6446 -14.6454 -14.6423 -14.642 -14.6427 -14.6431 -14.6439 -14.6454 -14.6446 
-14.6441 -14.6434 -14.6453 -14.6467 -14.6477 -14.6471 -14.6461 -14.6494 -14.6509 
-14.3995 -14.4087 -14.408 -14.3987 -14.398 -14.4073 -14.3986 -14.3991 -14.3991 
-14.3901 -14.3898 -14.3989 -14.3994 -14.6481 -14.3968 -14.3974 -14.4067 -14.4061 
-14.4055 -14.3963 -14.6471 -14.3958 -14.4051 -14.4046 -14.6447 -14.6452 -14.6458 
-14.6462 -14.4042 -14.395 -14.3954 -14.6418 -14.6417 -14.6423 -14.6424 -14.643 
-14.6429 -14.6434 -14.6436 -14.3914 -14.3996 -14.3906 -14.3903 -14.3993 -14.3996 
-14.3999 -14.3998 -14.3908 -14.3911 -14.4001 -14.4001 -14.3916 -14.4006 -14.4003 
-14.4003 -14.4006 -14.6439 -14.6442 -14.6446 -14.6443 -14.6446 -14.401 -14.3921 
-14.3919 -14.4008 -14.4008 -14.401 -14.6455 -14.3943 -14.3946 -14.4039 -14.4035 
-14.6449 -14.3937 -14.394 -14.4032 -14.403 -14.4028 -14.3934 -14.4026 -14.3982 
-14.3974 -14.4015 -14.3926 -14.3924 -14.4013 -14.4012 -14.4014 -14.4018 -14.3929 
-14.3928 -14.4016 -14.4016 -14.4018 -14.4019 -14.402 -14.393 -14.398 -14.4021 
-14.4022 -14.4024 -14.4023 -14.4022 -14.402 -14.4022 -14.6355 
VECTORS U float
0.0195339 0.14098 -0.0231849 -0.0135421 0 0 0.0958134 0.0148507 -0.0401673 
-0.0125767 0 0 0.0153078 0.0198927 -0.0525468 0.0206738 0.0117717 -0.0480796 
-0.0108631 0 0 -0.00461505 0 0 0.020602 0.0225041 -0.0373767 
-0.0148083 0 0 -0.0422928 0 0 0.12801 0.0440655 -0.0226709 
0.129037 0.0322659 -0.0307781 0.131786 0.0210021 -0.0428259 0.0942995 0.09363 -0.0503405 
0 0 0 0 0 0 0 0 0 
0 0 0 0 0 0 0 0 0 
0 0 0 0 0 0 0 0 0 
0 0 0 0 0 0 0 0 0 
0 0 0 0 0 0 0 0 0 
0 0 0 0 0 0 0 0 0 
0 0 0 0 0 0 0 0 0 
0 0 0 0 0 0 0 0 0 
0 0 0 0 0 0 0 0 0 
0 0 0 0 0 0 0 0 0 
0 0 0 0 0 0 0 0 0 
0 0 0 0 0 0 0 0 0 
0 0 0 0 0 0 0 0 0 
0 0 0 0 0 0 0 0 0 
0 0 0 0 0 0 0 0 0 
0 0 0 0 0 0 0 0 0 
0 0 0 0 0 0 0 0 0 
0 0 0 0 0 0 0 0 0 
0 0 0 0 0 0 0 0 0 
0 0 0 0 0 0 0 0 0 
0 0 0 0 0 0 0 0 0 
0 0 0 0 0 0 0 0 0 
0 0 0 0 0 0 0 0 0 
0 0 0 0 0 0 0 0 0 
0 0 0 0 0 0 0 0 0 
0 0 0 0 0 0 0 0 0 
0 0 0 0 0 0 0 0 0 
0 0 0 0 0 0 0 0 0 
0 0 0 0 0 0 0 0 0 
0 0 0 0 0 0 0 0 0 
0 0 0 0 0 0 0 0 0 
0 0 0 0 0 0 0 0 0 
0 0 0 0 0 0 0 0 0 
0 0 0 0 0 0 0 0 0 
0 0 0 0 0 0 0 0 0 
0 0 0 0 0 0 0 0 0 
0 0 0 0 0 0 0 0 0 
0 0 0 0 0 0 0 0 0 
0 0 0 0 0 0 0 0 0 
0 0 0 0 0 0 0 0 0 
0 0 0 0 0 0 0 0 0 
0 0 0 0 0 0 0 0 0 
0 0 0 0 0 0 0 0 0 
0 0 0 0 0 0 0 0 0 
0 0 0 0 0 0 0 0 0 
0 0 0 0 0 0 0 0 0 
0 0 0 0 0 0 0 0 0 
0 0 0 0 0 0 0 0 0 
0 0 0 0 0 0 0 0 0 
0 0 0 0 0 0 0 0 0 
0 0 0 0 0 0 0 0 0 
0 0 0 0 0 0 0 0 0 
0 0 0 0 0 0 0 0 0 
0 0 0 0 0 0 0 0 0 
0 0 0 0 0 0 0 0 0 
0 0 0 0 0 0 0 0 0 
0 0 0 0 0 0 0 0 0 
0 0 0 0 0 0 0 0 0 
0 0 0 0 0 0 0 0 0 
0 0 0 0 0 0 0 0 0 
0 0 0 0 0 0 0 0 0 
0 0 0 0 0 0 0 0 0 
0 0 0 0 0 0 0 0 0 
0 0 0 0 0 0 0 0 0 
0 0 0 0 0 0 0 0 0 
0 0 0 0 0 0 0 0 0 
0 0 0 0 0 0 0 0 0 
0 0 0 0 0 0 0 0 0 
0 0 0 0 0 0 0 0 0 
0 0 0 0 0 0 0 0 0 
0 0 0 0 0 0 0 0 0 
0 0 0 0 0 0 0 0 0 
0 0 0 0 0 0 0 0 0 
0 0 0 0 0 0 0 0 0 
0 0 0 0 0 0 0 0 0 
0 0 0 0 0 0 0 0 0 
0 0 0 0 0 0 0 0 0 
0 0 0 0 0 0 0 0 0 
0 0 0 0 0 0 0 0 0 
0 0 0 0 0 0 0 0 0 
0 0 0 0 0 0 0 0 0 
0 0 0 0 0 0 0 0 0 
0 0 0 0.000346889 0.000718397 0.0479127 0.123636 0.00319398 0.0152898 
0.0163693 0.0642757 0.0358819 -0.213002 -0.159892 0.0536372 -0.201799 0.0176545 -0.00433039 