# vtk DataFile Version 5.1
vtk output
ASCII
DATASET POLYDATA
POINTS 22355 float
0.515228 1.19032 2.5 0.557667 1.19031 2.5 0.541179 1.22996 2.5 
0.4744 1.23663 2.5 0.532177 1.28147 2.5 0.4744 1.28342 2.5 
0.529746 1.33 2.5 0.4744 1.33016 2.5 0.528562 1.37799 2.5 
0.4744 1.37791 2.5 0.600224 1.19031 2.5 0.592384 1.23556 2.5 
0.646362 1.1903 2.5 0.642043 1.2366 2.5 0.586896 1.28242 2.5 
0.638459 1.28337 2.5 0.691929 1.1903 2.5 0.690491 1.2369 2.5 
0.740814 1.19029 2.5 0.738702 1.23697 2.5 0.688634 1.28377 2.5 
0.737693 1.28391 2.5 0.583672 1.33029 2.5 0.63606 1.33083 2.5 
0.582063 1.37848 2.5 0.634648 1.37903 2.5 0.6872 1.33121 2.5 
0.737063 1.3314 2.5 0.686257 1.37945 2.5 0.736611 1.3797 2.5 
0.785879 1.19029 2.5 0.785441 1.23699 2.5 0.832933 1.19029 2.5 
0.830343 1.23696 2.5 0.785149 1.28396 2.5 0.830207 1.28396 2.5 
0.872766 1.19029 2.5 0.872282 1.23696 2.5 0.913416 1.19029 2.5 
0.911901 1.23688 2.5 0.872377 1.28395 2.5 0.91195 1.28386 2.5 
0.785094 1.33149 2.5 0.830481 1.33154 2.5 0.785029 1.37985 2.5 
0.830644 1.37994 2.5 0.872739 1.33154 2.5 0.912192 1.33139 2.5 
0.872964 1.37998 2.5 0.912343 1.37988 2.49999 0.528017 1.42602 2.5 
0.4744 1.42481 2.5 0.527651 1.47422 2.5 0.4744 1.47254 2.5 
0.527134 1.5226 2.5 0.4744 1.51789 2.5 0.525692 1.57231 2.5 
0.4744 1.56362 2.5 0.520412 1.62491 2.5 0.4744 1.60627 2.5 
0.4744 1.64901 2.5 0.52763 1.69029 2.5 0.581228 1.42709 2.5 
0.633829 1.42799 2.5 0.580664 1.47629 2.5 0.633252 1.47783 2.5 
0.685636 1.42861 2.5 0.736229 1.42897 2.5 0.685143 1.47878 2.5 
0.735822 1.4793 2.5 0.580004 1.52638 2.5 0.632681 1.52875 2.5 
0.578982 1.57806 2.5 0.63214 1.58107 2.5 0.684658 1.53004 2.5 
0.735341 1.53069 2.5 0.684263 1.58247 2.5 0.734905 1.58312 2.5 
0.784842 1.42919 2.5 0.83058 1.42933 2.5 0.784492 1.47958 2.5 
0.830278 1.47977 2.5 0.872958 1.42941 2.5 0.912352 1.42927 2.49999 
0.872727 1.47988 2.5 0.912225 1.47983 2.49999 0.783969 1.53103 2.5 
0.829743 1.53124 2.5 0.783427 1.58344 2.5 0.829137 1.58363 2.5 
0.872275 1.53137 2.5 0.911966 1.53129 2.5 0.871734 1.58376 2.5 
0.911646 1.58376 2.5 0.578251 1.63279 2.5 0.63217 1.63502 2.5 
0.580519 1.69029 2.5 0.633528 1.69029 2.5 0.684319 1.63601 2.5 
0.734986 1.63645 2.5 0.685042 1.69029 2.5 0.736952 1.69029 2.5 
0.783389 1.63663 2.5 0.829085 1.63679 2.5 0.784276 1.69029 2.5 
0.832203 1.69029 2.5 0.87165 1.63684 2.5 0.911558 1.63683 2.5 
0.87255 1.69029 2.5 0.913349 1.69029 2.5 0.95 1.19028 2.5 
0.95 1.23665 2.5 0.95 1.53084 2.49999 0.95 1.5836 2.49999 
0.95 1.47952 2.49999 0.95 1.63666 2.5 0.95 1.69028 2.5 
0.95 1.2836 2.49999 0.95 1.33083 2.49999 0.95 1.37951 2.49999 
0.95 1.42865 2.49999 -0.6628 0.575 2.5 -0.6128 0.575 2.5 
-0.6128 0.625 2.5 -0.6628 0.625 2.5 -0.5628 0.575 2.5 
-0.5628 0.625 2.5 -0.6128 0.675 2.5 -0.6628 0.675 2.5 
-0.5628 0.675 2.5 -0.5128 0.575 2.5 -0.5128 0.625 2.5 
-0.4628 0.575 2.5 -0.4628 0.625 2.5 -0.5128 0.675 2.5 
-0.4628 0.675 2.5 -0.6128 0.725 2.5 -0.6628 0.725 2.5 
-0.5628 0.725 2.5 -0.6128 0.775 2.5 -0.6628 0.775 2.5 
-0.5628 0.775 2.5 -0.5128 0.725 2.5 -0.4628 0.725 2.5 
-0.5128 0.775 2.5 -0.4628 0.775 2.5 -0.4128 0.575 2.5 
-0.4128 0.625 2.5 -0.3628 0.575 2.5 -0.3628 0.625 2.5 
-0.4128 0.675 2.5 -0.3628 0.675 2.5 -0.3128 0.575 2.5 
-0.3128 0.625 2.5 -0.2628 0.575 2.5 -0.2628 0.625 2.5 
-0.3128 0.675 2.5 -0.2628 0.675 2.5 -0.4128 0.725 2.5 
-0.3628 0.725 2.5 -0.4128 0.775 2.5 -0.3628 0.775 2.5 
-0.3128 0.725 2.5 -0.2628 0.725 2.5 -0.3128 0.775 2.5 
-0.2628 0.775 2.5 -0.6128 0.825 2.5 -0.6628 0.825 2.5 
-0.5628 0.825 2.5 -0.6128 0.875 2.5 -0.6628 0.875 2.5 
-0.5628 0.875 2.5 -0.5128 0.825 2.5 -0.4628 0.825 2.5 
-0.5128 0.875 2.5 -0.4628 0.875 2.5 -0.6128 0.925 2.5 
-0.6628 0.925 2.5 -0.5628 0.925 2.5 -0.6128 0.975 2.5 
-0.6628 0.975 2.5 -0.5628 0.975 2.5 -0.5128 0.925 2.5 
-0.4628 0.925 2.5 -0.5128 0.975 2.5 -0.4628 0.975 2.5 
-0.4128 0.825 2.5 -0.3628 0.825 2.5 -0.4128 0.875 2.5 
-0.3628 0.875 2.5 -0.3128 0.825 2.5 -0.2628 0.825 2.5 
-0.3128 0.875 2.5 -0.2628 0.875 2.5 -0.4128 0.925 2.5 
-0.3628 0.925 2.5 -0.4128 0.975 2.5 -0.3628 0.975 2.5 
-0.3128 0.925 2.5 -0.2628 0.925 2.5 -0.3128 0.975 2.5 
-0.2628 0.975 2.5 -0.2128 0.575 2.5 -0.2128 0.625 2.5 
-0.1628 0.575 2.5 -0.1628 0.625 2.5 -0.2128 0.675 2.5 
-0.1628 0.675 2.5 -0.1128 0.575 2.5 -0.1128 0.625 2.5 
-0.0628003 0.575 2.5 -0.0628003 0.625 2.5 -0.1128 0.675 2.5 
-0.0628002 0.675 2.5 -0.2128 0.725 2.5 -0.1628 0.725 2.5 
-0.2128 0.775 2.5 -0.1628 0.775 2.5 -0.1128 0.725 2.5 
-0.0627998 0.725 2.5 -0.1128 0.775 2.5 -0.0627997 0.775 2.5 
-0.0128002 0.575 2.5 -0.0128002 0.625 2.5 0.0372003 0.575 2.5 
0.0372003 0.625 2.5 -0.0127998 0.675 2.5 0.0372005 0.675 2.5 
0.0872003 0.575 2.5 0.0872005 0.625 2.5 0.1372 0.575 2.5 
0.137201 0.625001 2.5 0.0872008 0.675001 2.5 0.137201 0.675001 2.5 
-0.0127996 0.725001 2.5 0.0372008 0.725001 2.5 -0.0127993 0.775001 2.5 
0.0372015 0.775002 2.5 0.0872016 0.725002 2.5 0.137203 0.725003 2.5 
0.0872031 0.775003 2.5 0.137206 0.775007 2.5 -0.2128 0.825 2.5 
-0.1628 0.825 2.5 -0.2128 0.875 2.5 -0.1628 0.875 2.5 
-0.1128 0.825 2.5 -0.0627995 0.825001 2.5 -0.1128 0.875 2.5 
-0.0627992 0.875001 2.5 -0.2128 0.925 2.5 -0.1628 0.925 2.5 
-0.2128 0.975 2.5 -0.1628 0.975 2.5 -0.112799 0.925001 2.5 
-0.062799 0.925001 2.5 -0.112799 0.975001 2.5 -0.0627989 0.975002 2.5 
-0.0127989 0.825001 2.5 0.0372025 0.825003 2.5 -0.0127983 0.875002 2.5 
0.0372041 0.875005 2.5 0.0872057 0.825006 2.5 0.137213 0.825014 2.5 
0.0872099 0.875011 2.5 0.137223 0.875026 2.5 -0.0127976 0.925003 2.5 
0.037206 0.925007 2.5 -0.0127972 0.975004 2.5 0.0372075 0.975011 2.5 
0.0872151 0.925018 2.5 0.137236 0.925043 2.5 0.0872201 0.975027 2.5 
0.13725 0.975066 2.5 -0.6128 1.025 2.5 -0.6628 1.025 2.5 
-0.5628 1.025 2.5 -0.6128 1.075 2.5 -0.6628 1.075 2.5 
-0.5628 1.075 2.5 -0.5128 1.025 2.5 -0.4628 1.025 2.5 
-0.5128 1.075 2.5 -0.4628 1.075 2.5 -0.6128 1.125 2.5 
-0.6628 1.125 2.5 -0.5628 1.125 2.5 -0.6128 1.175 2.5 
-0.6628 1.175 2.5 -0.5628 1.175 2.5 -0.5128 1.125 2.5 
-0.4628 1.125 2.5 -0.5128 1.175 2.5 -0.4628 1.175 2.5 
-0.4128 1.025 2.5 -0.3628 1.025 2.5 -0.4128 1.075 2.5 
-0.3628 1.075 2.5 -0.3128 1.025 2.5 -0.2628 1.025 2.5 
-0.3128 1.075 2.5 -0.2628 1.075 2.5 -0.4128 1.125 2.5 
-0.3628 1.125 2.5 -0.4128 1.175 2.5 -0.3628 1.175 2.5 
-0.3128 1.125 2.5 -0.2628 1.125 2.5 -0.3128 1.175 2.5 
-0.2628 1.175 2.5 -0.6128 1.225 2.5 -0.6628 1.225 2.5 
-0.5628 1.225 2.5 -0.6128 1.275 2.5 -0.6628 1.275 2.5 
-0.5628 1.275 2.5 -0.5128 1.225 2.5 -0.4628 1.225 2.5 
-0.5128 1.275 2.5 -0.4628 1.275 2.5 -0.6128 1.325 2.5 
-0.6628 1.325 2.5 -0.5628 1.325 2.5 -0.6128 1.375 2.5 
-0.6628 1.375 2.5 -0.5628 1.375 2.5 -0.5128 1.325 2.5 
-0.4628 1.325 2.5 -0.5128 1.375 2.5 -0.4628 1.375 2.5 
-0.4128 1.225 2.5 -0.3628 1.225 2.5 -0.4128 1.275 2.5 
-0.3628 1.275 2.5 -0.3128 1.225 2.5 -0.2628 1.225 2.5 
-0.3128 1.275 2.5 -0.2628 1.275 2.5 -0.4128 1.325 2.5 
-0.3628 1.325 2.5 -0.4128 1.375 2.5 -0.3628 1.375 2.5 
-0.3128 1.325 2.5 -0.2628 1.325 2.5 -0.3128 1.375 2.5 
-0.2628 1.375 2.5 -0.2128 1.025 2.5 -0.1628 1.025 2.5 
-0.2128 1.075 2.5 -0.1628 1.075 2.5 -0.112799 1.025 2.5 
-0.0627989 1.025 2.5 -0.1128 1.075 2.5 -0.0627992 1.075 2.5 
-0.2128 1.125 2.5 -0.1628 1.125 2.5 -0.2128 1.175 2.5 
-0.1628 1.175 2.5 -0.1128 1.125 2.5 -0.0628 1.125 2.5 
-0.1128 1.175 2.5 -0.0628011 1.175 2.5 -0.0127973 1.025 2.5 
0.0372077 1.02501 2.5 -0.0127983 1.07501 2.5 0.0372051 1.07502 2.5 
0.0872219 1.02504 2.5 0.137258 1.02509 2.5 0.0872166 1.07504 2.5 
0.13725 1.07511 2.5 -0.0128007 1.12501 2.5 0.0371988 1.12502 2.5 
-0.0128043 1.17501 2.5 0.0371884 1.17502 2.5 0.0872012 1.12505 2.5 
0.137216 1.12512 2.5 0.0871748 1.17505 2.5 0.137155 1.17512 2.5 
-0.2128 1.225 2.5 -0.1628 1.225 2.5 -0.2128 1.275 2.5 
-0.1628 1.275 2.5 -0.1128 1.225 2.5 -0.0628026 1.225 2.5 
-0.112801 1.275 2.5 -0.0628041 1.275 2.5 -0.2128 1.325 2.5 
-0.1628 1.325 2.5 -0.2128 1.375 2.5 -0.1628 1.375 2.5 
-0.112801 1.325 2.5 -0.0628055 1.325 2.5 -0.112802 1.375 2.5 
-0.0628066 1.375 2.5 -0.0128089 1.225 2.5 0.0371752 1.22502 2.5 
-0.0128139 1.275 2.5 0.037161 1.27501 2.5 0.0871403 1.22504 2.5 
0.137072 1.22511 2.5 0.0871031 1.27504 2.5 0.136983 1.2751 2.5 
-0.0128183 1.325 2.5 0.0371481 1.32501 2.5 -0.0128218 1.375 2.5 
0.0371381 1.375 2.5 0.0870692 1.32503 2.5 0.136902 1.32507 2.5 
0.0870432 1.37501 2.5 0.136841 1.37503 2.5 0.1872 0.575 2.5 
0.187201 0.625001 2.5 0.237201 0.575001 2.5 0.237202 0.625001 2.5 
0.187202 0.675002 2.5 0.237204 0.675004 2.5 0.287201 0.575 2.5 
0.287203 0.625002 2.5 0.337203 0.575 2.5 0.337205 0.625003 2.5 
0.287206 0.675006 2.5 0.33721 0.675009 2.5 0.187205 0.725006 2.5 
0.237209 0.72501 2.5 0.187212 0.775013 2.5 0.237222 0.775024 2.5 
0.287215 0.725016 2.5 0.337224 0.725024 2.5 0.287236 0.77504 2.5 
0.337255 0.77506 2.5 0.387209 0.575001 2.5 0.387211 0.625003 2.5 
0.437226 0.575001 2.5 0.437229 0.625004 2.5 0.387218 0.675012 2.5 
0.437237 0.675015 2.5 0.487271 0.575001 2.5 0.487274 0.625005 2.5 
0.537373 0.575002 2.5 0.537376 0.625007 2.5 0.487283 0.675018 2.5 
0.537384 0.675022 2.5 0.387236 0.725034 2.5 0.437258 0.725043 2.5 
0.387279 0.775084 2.5 0.437312 0.775109 2.5 0.487306 0.725052 2.5 
0.537408 0.725061 2.5 0.487365 0.775133 2.5 0.537467 0.775155 2.5 
0.187225 0.825028 2.5 0.237247 0.825052 2.5 0.187248 0.875054 2.5 
0.237292 0.875102 2.5 0.28728 0.825088 2.5 0.337324 0.825136 2.5 
0.287361 0.875177 2.5 0.337454 0.87528 2.5 0.18728 0.925093 2.5 
0.23736 0.925182 2.5 0.187316 0.975145 2.5 0.237444 0.975291 2.5 
0.287491 0.925324 2.5 0.337679 0.925525 2.5 0.287669 0.975535 2.5 
0.338016 0.975896 2.5 0.387374 0.825193 2.5 0.43743 0.825252 2.5 
0.387564 0.875403 2.5 0.437674 0.875532 2.5 0.487498 0.825308 2.5 
0.537601 0.825357 2.5 0.487775 0.875652 2.5 0.537881 0.875753 2.5 
0.387908 0.925772 2.5 0.438136 0.926033 2.5 0.388474 0.976357 2.5 
0.438954 0.976855 2.5 0.488317 0.926271 2.5 0.538434 0.926463 2.5 
0.489315 0.977301 2.5 0.539466 0.97764 2.5 0.587564 0.575002 2.5 
0.587567 0.625008 2.5 0.637836 0.575003 2.5 0.637838 0.62501 2.5 
0.587575 0.675025 2.5 0.637845 0.675029 2.5 0.688009 0.575003 2.5 
[...]
POINT_DATA 22355
SCALARS p float
LOOKUP_TABLE default
-24.2661 -24.3962 -24.3101 -24.2587 -24.246 -24.2521 -24.2751 -24.2914 -24.355 
-24.4281 -24.4171 -24.3311 -24.3102 -24.2899 -24.2419 -24.2594 -24.2854 -24.2865 
-24.3923 -24.3311 -24.2805 -24.275 -24.2524 -24.2499 -24.2673 -24.2619 -24.264 
-24.2734 -24.2696 -24.2656 -24.525 -24.3825 -24.3677 -24.2943 -24.2486 -24.2285 
-24.2173 -24.2169 -24.2715 -24.2543 -24.2264 -24.2519 -24.2619 -24.2458 -24.3285 
-24.321 -24.2412 -24.2698 -24.2403 -24.2681 -24.3988 -24.3923 -24.3942 -24.2634 
-24.3374 -24.2624 -24.3437 -24.3913 -24.4314 -24.525 -24.4072 -24.4072 -24.3277 
-24.3302 -24.3924 -24.3924 -24.3478 -24.2698 -24.4135 -24.2837 -24.344 -24.3375 
-24.2937 -24.2828 -24.4077 -24.349 -24.3322 -24.3272 -24.3172 -24.3061 -24.252 
-24.2313 -24.2259 -24.2622 -24.2978 -24.337 -24.268 -24.2468 -24.2583 -24.2446 
-24.3823 -24.4688 -24.3093 -24.3941 -24.3548 -24.2905 -24.4124 -24.2927 -24.2709 
-24.2628 -24.2768 -24.277 -24.2564 -24.2369 -24.2726 -24.2416 -24.2307 -24.266 
-24.229 -24.2689 -24.3187 -24.2878 -24.4127 -24.4063 -24.3022 -24.2956 -24.3036 
-24.275 -24.2977 -24.3037 -24.3046 -24.3428 -24.3426 -24.3431 -24.3431 -24.3426 
-24.343 -24.3435 -24.3436 -24.3434 -24.3425 -24.3429 -24.3425 -24.3429 -24.3434 
-24.3433 -24.344 -24.344 -24.3438 -24.3443 -24.3444 -24.3442 -24.3438 -24.3438 
-24.3442 -24.3441 -24.3424 -24.3428 -24.3425 -24.3429 -24.3433 -24.3433 -24.3425 
-24.3429 -24.3426 -24.3429 -24.3433 -24.3434 -24.3437 -24.3438 -24.3441 -24.3441 
-24.3438 -24.3438 -24.3442 -24.3442 -24.3447 -24.3447 -24.3446 -24.345 -24.3451 
-24.3449 -24.3445 -24.3445 -24.3449 -24.3448 -24.3453 -24.3454 -24.3453 -24.3457 
-24.3458 -24.3456 -24.3452 -24.3452 -24.3456 -24.3455 -24.3444 -24.3444 -24.3448 
-24.3448 -24.3445 -24.3445 -24.3448 -24.3448 -24.3451 -24.3451 -24.3455 -24.3455 
-24.3451 -24.3451 -24.3454 -24.3453 -24.3426 -24.3431 -24.3428 -24.3432 -24.3435 
-24.3437 -24.343 -24.3434 -24.3432 -24.3436 -24.3438 -24.344 -24.344 -24.3441 
-24.3443 -24.3444 -24.3442 -24.3444 -24.3446 -24.3448 -24.3433 -24.3438 -24.3436 
-24.3442 -24.3443 -24.3447 -24.3439 -24.3446 -24.3442 -24.345 -24.3452 -24.3456 
-24.3448 -24.3451 -24.3451 -24.3454 -24.3456 -24.3462 -24.3458 -24.3465 -24.3446 
-24.3447 -24.3449 -24.3449 -24.3448 -24.345 -24.3451 -24.3452 -24.3451 -24.3451 
-24.3453 -24.3452 -24.3452 -24.3453 -24.3453 -24.3454 -24.3452 -24.3454 -24.3452 
-24.3452 -24.3455 -24.3454 -24.3446 -24.3408 -24.3453 -24.3449 -24.3451 -24.344 
-24.3426 -24.3325 -24.3381 -24.319 -24.346 -24.3461 -24.346 -24.3464 -24.3464 
-24.3463 -24.3459 -24.3459 -24.3463 -24.3463 -24.3467 -24.3468 -24.3467 -24.347 
-24.347 -24.3471 -24.3467 -24.3467 -24.3471 -24.3471 -24.3458 -24.3458 -24.3463 
-24.3461 -24.3457 -24.3455 -24.3459 -24.3456 -24.3467 -24.3466 -24.3472 -24.3471 
-24.3463 -24.3455 -24.3466 -24.3447 -24.3474 -24.3474 -24.3474 -24.3476 -24.3476 
-24.3477 -24.3475 -24.3476 -24.3478 -24.348 -24.3479 -24.3479 -24.348 -24.3482 
-24.3481 -24.3483 -24.3482 -24.3484 -24.3484 -24.3486 -24.3478 -24.3479 -24.3484 
-24.3487 -24.3472 -24.3427 -24.3477 -24.3387 -24.3487 -24.3489 -24.349 -24.349 
-24.3469 -24.3349 -24.3467 -24.3341 -24.3453 -24.3449 -24.345 -24.3435 -24.3445 
-24.3435 -24.34 -24.3339 -24.3438 -24.3384 -24.3392 -24.3237 -24.3257 -24.3095 
-24.2986 -24.2779 -24.3424 -24.3404 -24.3291 -24.3288 -24.3302 -24.3016 -24.3216 
-24.2948 -24.3014 -24.3092 -24.2752 -24.2937 -24.3184 -24.3111 -24.3194 -24.3343 
-24.3273 -24.2955 -24.3084 -24.2637 -24.263 -24.2528 -24.236 -24.2469 -24.2971 
-24.2463 -24.2948 -24.2372 -24.2239 -24.2513 -24.209 -24.2357 -24.2691 -24.2994 
-24.2874 -24.327 -24.3282 -24.3487 -24.3507 -24.3683 -24.3079 -24.353 -24.2952 
-24.3524 -24.3762 -24.3944 -24.3893 -24.4135 -24.3444 -24.3452 -24.3426 -24.3444 
-24.3461 -24.3454 -24.3283 -24.3336 -24.292 -24.302 -24.3375 -24.3113 -24.3471 
-24.3468 -24.3478 -24.3489 -24.3383 -24.3117 -24.3432 -24.3196 -24.2467 -24.2549 
-24.2194 -24.2201 -24.2621 -24.2158 -24.2393 -24.2353 -24.2951 -24.2922 -24.2171 
-24.2639 -24.2626 -24.2115 -24.2708 -24.2153 -24.198 -24.2288 -24.1843 -24.1932 
-24.3442 -24.343 -24.3289 -24.3174 -24.3418 -24.3281 -24.3165 -24.3153 -24.3057 
-24.2808 -24.2831 -24.2574 -24.2764 -24.2826 -24.2538 -24.2587 -24.2871 -24.2272 
-24.2923 -24.2365 -24.1779 -24.1711 -24.1789 -24.1703 -24.2794 -24.2432 -24.2668 
-24.2556 -24.1914 -24.181 -24.2178 -24.1981 -24.3406 -24.3428 -24.3657 -24.3715 
-24.314 -24.347 -24.3819 -24.3858 -24.3882 -24.3933 -24.3629 -24.3725 -24.2768 
-24.3177 -24.239 -24.2948 -24.3394 -24.3491 -24.3293 -24.3392 -24.3728 -24.3908 
-24.3265 -24.3575 -24.375 -24.3475 -24.2694 -24.3009 -24.2378 -24.2642 -24.3004 
-24.2749 -24.3487 -24.3248 -24.3335 -24.3096 -24.2901 -24.2747 -24.2793 -24.2656 
-24.2184 -24.2861 -24.2225 -24.2936 -24.33 -24.3431 -24.3396 -24.3552 -24.2309 
-24.2994 -24.2315 -24.2938 -24.3456 -24.3619 -24.3436 -24.3666 -24.3336 -24.3013 
-24.3423 -24.2993 -24.2659 -24.2527 -24.2542 -24.2401 -24.3489 -24.3062 -24.3635 
-24.3327 -24.2549 -24.2337 -24.2824 -24.2518 -24.3186 -24.3647 -24.3612 -24.3254 
-24.3771 -24.3722 -24.3498 -24.3556 -24.3225 -24.3388 -24.3551 -24.3202 -24.3839 
-24.3457 -24.295 -24.4046 -24.3903 -24.3886 -24.4332 -24.4389 -24.3128 -24.3309 
-24.3129 -24.3162 -24.2961 -24.3036 -24.2719 -24.3183 -24.3825 -24.3549 -24.4316 
-24.4021 -24.3459 -24.3712 -24.387 -24.3955 -24.3317 -24.2682 -24.4085 -24.3343 
-24.2653 -24.4112 -24.45 -24.4585 -24.4494 -24.4565 -24.3629 -24.2836 -24.43 
-24.3832 -24.2985 -24.4447 -24.4536 -24.4508 -24.461 -24.4478 -24.4488 -24.4214 
-24.4447 -24.4164 -24.3979 -24.3892 -24.3849 -24.3646 -24.4319 -24.4007 -24.419 
-24.3811 -24.3617 -24.3286 -24.3314 -24.2807 -24.2702 -24.2646 -24.2808 -24.3002 
-24.2697 -24.2669 -24.315 -24.3065 -24.2687 -24.3251 -24.2783 -24.3233 -24.3149 
-24.2918 -24.354 -24.3446 -24.3107 -24.3816 -24.3769 -24.3501 -24.3763 -24.3961 
-24.3801 -24.3995 -24.4061 -24.43 -24.4216 -24.4429 -24.3182 -24.3794 -24.3635 
-24.3154 -24.3728 -24.3522 -24.4002 -24.307 -24.366 -24.3893 -24.2981 -24.3547 
-24.4245 -24.4173 -24.4439 -24.4402 -24.4097 -24.3933 -24.432 -24.4105 -24.386 
-24.3903 -24.358 -24.3623 -24.4086 -24.4286 -24.381 -24.3985 -24.3147 -24.318 
-24.2563 -24.2611 -24.339 -24.3578 -24.2868 -24.3159 -24.4354 -24.2698 -24.4368 
-24.4043 -24.2727 -24.4074 -24.4315 -24.2941 -24.4127 -24.4033 -24.2922 -24.3881 
-24.364 -24.3675 -24.332 -24.3397 -24.3613 -24.3471 -24.3362 -24.3251 -24.2531 
-24.2261 -24.2856 -24.2615 -24.3295 -24.3181 -24.3654 -24.3507 -24.3836 -24.2821 
-24.4571 -24.3759 -24.2694 -24.4558 -24.4711 -24.4498 -24.4691 -24.4457 -24.3734 
-24.2968 -24.4363 -24.3122 -24.3919 -24.3351 -24.2931 -24.4388 -24.4519 -24.3372 
-24.4349 -24.4519 -24.3065 -24.4393 -24.4192 -24.3806 -24.4209 -24.3911 -24.3201 
-24.2456 -24.3382 -24.2651 -24.4155 -24.3945 -24.4188 -24.3983 -24.3589 -24.3078 
-24.3695 -24.3289 -24.3703 -24.4012 -24.4141 -24.3559 -24.4579 -24.3907 -24.4138 
-24.3561 -24.4175 -24.4564 -24.4678 -24.4559 -24.467 -24.4576 -24.4072 -24.3475 
-24.4449 -24.396 -24.3441 -24.434 -24.4518 -24.4446 -24.4437 -24.4389 -24.4301 
-24.4212 -24.4013 -24.4326 -24.4137 -24.4018 -24.3703 -24.4331 -24.3355 -24.3695 
-24.4235 -24.3381 -24.4258 -24.4 -24.424 -24.4011 -24.37 -24.3381 -24.3703 
-24.3275 -24.2023 -24.2057 -24.2046 -24.1857 -24.2395 -24.2843 -24.213 -24.264 
-24.2516 -24.4161 -24.2146 -24.2883 -24.441 -24.2593 -24.2234 -24.4395 -24.2662 
-24.2605 -24.4729 -24.2903 -24.3144 -24.3281 -24.3044 -24.3249 -24.3307 -24.3236 
-24.3314 -24.3275 -24.3062 -24.3272 -24.3188 -24.3319 -24.3333 -24.3317 -24.3351 
-24.3347 -24.3068 -24.457 -24.2921 -24.3167 -24.4435 -24.311 -24.2968 -24.495 
-24.3149 -24.3179 -24.482 -24.3284 -24.3152 -24.3097 -24.2886 -24.2794 -24.3185 
-24.3302 -24.2999 -24.3246 -24.3299 -24.3354 -24.3352 -24.3372 -24.3367 -24.3367 
-24.3377 -24.3378 -24.3365 -24.3381 -24.3362 -24.3386 -24.3384 -24.3384 -24.3389 
-24.3389 -24.391 -24.3706 -24.3944 -24.365 -24.3625 -24.3534 -24.2971 -24.3495 
-24.2955 -24.3502 -24.4046 -24.2876 -24.346 -24.3606 -24.2852 -24.3454 -24.381 
-24.4418 -24.3785 -24.3899 -24.3867 -24.3811 -24.3798 -24.3891 -24.3858 -24.4053 
-24.3023 -24.3627 -24.3395 -24.3246 -24.3791 -24.3552 -24.3278 -24.3746 -24.3045 
-24.3455 -24.4061 -24.4119 -24.4235 -24.4188 -24.3951 -24.3625 -24.3917 -24.3666 
-24.3883 -24.3706 -24.3645 -24.343 -24.3744 -24.3988 -24.3472 -24.3754 -24.3285 
-24.3115 -24.3091 -24.2919 -24.3157 -24.3404 -24.2865 -24.2965 -24.4179 -24.4077 
-24.3963 -24.3867 -24.3813 -24.3793 -24.3693 -24.3838 -24.3581 -24.3513 -24.3073 
-24.3092 -24.3456 -24.3646 -24.3192 -24.3419 -24.2726 -24.3118 -24.2603 -24.312 
-24.2678 -24.3345 -24.2765 -24.3461 -24.3365 -24.3455 -24.3617 -24.379 -24.3831 
-24.4052 -24.4151 -24.439 -24.2777 -24.3481 -24.2727 -24.3457 -24.2793 -24.3414 
-24.2941 -24.3453 -24.4095 -24.4109 -24.4437 -24.4439 -24.4025 -24.3996 -24.4354 
-24.43 -24.3988 -24.4115 -24.4114 -24.4149 -24.4187 -24.4275 -24.3969 -24.3898 
-24.389 -24.3928 -24.3622 -24.3665 -24.3748 -24.362 -24.3557 -24.3464 -24.4364 
-24.4416 -24.4015 -24.4121 -24.4369 -24.426 -24.4088 -24.3852 -24.368 -24.3783 
-24.3472 -24.3524 -24.3691 -24.3237 -24.3372 -24.2716 -24.3067 -24.2845 -24.3141 
-24.2926 -24.2666 -24.261 -24.2691 -24.2542 -24.3248 -24.3114 -24.3326 -24.3276 
-24.2915 -24.2757 -24.3171 -24.3074 -24.265 -24.2765 -24.2527 -24.2663 -24.3001 
-24.3258 -24.2932 -24.3178 -24.2736 -24.284 -24.3068 -24.313 -24.3036 -24.3211 
-24.3223 -24.33 -24.3364 -24.3355 -24.3379 -24.338 -24.3327 -24.3295 -24.3377 
-24.337 -24.3385 -24.3386 -24.339 -24.339 -24.3386 -24.3384 -24.3389 -24.3387 
-24.329 -24.331 -24.3367 -24.3367 -24.3336 -24.3354 -24.3369 -24.3371 -24.3381 
-24.3378 -24.3385 -24.3383 -24.3377 -24.3377 -24.3381 -24.338 -24.3433 -24.3477 
-24.3319 -24.3375 -24.344 -24.3406 -24.3391 -24.3387 -24.3302 -24.3346 -24.3337 
-24.3356 -24.3369 -24.3372 -24.3365 -24.3367 -24.3386 -24.3359 -24.3356 -24.3288 
-24.3172 -24.2523 -24.3109 -24.2674 -24.3349 -24.3295 -24.3358 -24.3333 -24.3182 
-24.2988 -24.3288 -24.3233 -24.3363 -24.3367 -24.3372 -24.3372 -24.3368 -24.3368 
-24.3371 -24.337 -24.3376 -24.3375 -24.3379 -24.3378 -24.3374 -24.3373 -24.3377 
-24.3375 -24.3365 -24.3357 -24.3369 -24.3366 -24.3345 -24.3334 -24.3363 -24.3361 
-24.3371 -24.2346 -24.337 -24.3374 -24.2843 -24.3372 -24.3368 -24.2482 -24.3366 
-24.3371 -24.2767 -24.337 -24.3405 -24.3771 -24.3351 -24.3862 -24.2687 -24.2725 
-24.3825 -24.3463 -24.4302 -24.2792 -24.3842 -24.3373 -24.271 -24.4341 -24.4482 
-24.4405 -24.4484 -24.4367 -24.3733 -24.3178 -24.4173 -24.3467 -24.3074 -24.3928 
-24.4346 -24.4299 -24.425 -24.4292 -24.4217 -24.3202 -24.3951 -24.4139 -24.3785 
-24.3845 -24.3596 -24.3088 -24.3074 -24.3512 -24.3675 -24.306 -24.4095 -24.3844 
-24.4128 -24.3929 -24.3591 -24.3248 -24.3691 -24.3363 -24.3361 -24.3135 -24.3928 
-24.352 -24.338 -24.4145 -24.4353 -24.4369 -24.4544 -24.4459 -24.3792 -24.365 
-24.4366 -24.3874 -24.3545 -24.4398 -24.4647 -24.4474 -24.4616 -24.4447 -24.4177 
-24.3983 -24.4205 -24.3958 -24.3718 -24.3364 -24.3636 -24.3214 -24.4206 -24.3954 
-24.4183 -24.3924 -24.3573 -24.3022 -24.3521 -24.2981 -24.2532 -24.2379 -24.2529 
-24.228 -24.272 -24.3149 -24.2544 -24.3004 -24.2826 -24.2533 -24.3027 -24.3857 
-24.276 -24.2579 -24.3619 -24.2901 -24.2691 -24.402 -24.2904 -24.3348 -24.3781 
-24.3389 -24.3287 -24.3381 -24.3394 -24.3394 -24.3398 -24.3398 -24.3216 -24.3363 
-24.3199 -24.3356 -24.3398 -24.313 -24.3402 -24.2777 -24.3398 -24.3404 -24.3323 
-24.3003 -24.3015 -24.2729 -24.2766 -24.2529 -24.2701 -24.2948 -24.2677 -24.3023 
-24.2538 -24.2442 -24.2608 -24.2622 -24.274 -24.3115 -24.2915 -24.3215 -24.3228 
-24.3365 -24.3281 -24.4014 -24.3381 -24.3401 -24.3802 -24.3406 -24.3405 -24.3947 
-24.3408 -24.3329 -24.3771 -24.3396 -24.3366 -24.3405 -24.3409 -24.3411 -24.3412 
-24.3415 -24.3429 -24.3246 -24.3457 -24.335 -24.3531 -24.3174 -24.4043 -24.3121 
-24.307 -24.3557 -24.4413 -24.4414 -24.4141 -24.4354 -24.305 -24.3145 -24.3384 
-24.3257 -24.3158 -24.3638 -24.397 -24.4251 -24.4054 -24.4197 -24.4191 -24.3878 
-24.4222 -24.3936 -24.3474 -24.3062 -24.3584 -24.3238 -24.4177 -24.3974 -24.4091 
-24.3878 -24.3716 -24.34 -24.3601 -24.3274 -24.3705 -24.3224 -24.4188 -24.4076 
-24.3378 -24.4567 -24.4359 -24.4272 -24.4587 -24.435 -24.4262 -24.3582 -24.4726 
-24.44 -24.3665 -24.4819 -24.4663 -24.4345 -24.4676 -24.4362 -24.4055 -24.3727 
-24.4011 -24.3613 -24.336 -24.3018 -24.3239 -24.2937 -24.3976 -24.36 -24.4047 
-24.372 -24.3253 -24.3022 -24.3393 -24.3201 -24.2838 -24.2889 -24.3024 -24.3013 
-24.3101 -24.3293 -24.3148 -24.33 -24.3112 -24.2998 -24.2999 -24.2924 -24.3097 
-24.327 -24.3069 -24.3272 -24.3385 -24.341 -24.3387 -24.3415 -24.3416 -24.3418 
-24.342 -24.3422 -24.3383 -24.342 -24.3391 -24.3426 -24.3426 -24.3427 -24.3431 
-24.3432 -24.2826 -24.2889 -24.2835 -24.2989 -24.3115 -24.3319 -24.3225 -24.3377 
-24.3013 -24.3174 -24.3218 -24.3326 -24.3336 -24.3417 -24.3404 -24.3436 -24.3412 
-24.3433 -24.343 -24.3439 -24.3436 -24.3436 -24.344 -24.344 -24.3439 -24.3443 
-24.3444 -24.3446 -24.3444 -24.3444 -24.3447 -24.3448 -24.3394 -24.3393 -24.3398 
-24.3396 -24.3392 -24.339 -24.3395 -24.3393 -24.3401 -24.34 -24.3404 -24.3403 
-24.3398 -24.3397 -24.3402 -24.34 -24.3389 -24.3387 -24.3392 -24.339 -24.3385 
-24.3384 -24.3389 -24.3387 -24.3395 -24.3394 -24.3399 -24.3397 -24.3392 -24.3391 
-24.3396 -24.3394 -24.3406 -24.3406 -24.3409 -24.3409 -24.3405 -24.3403 -24.3408 
-24.3407 -24.3412 -24.3412 -24.3416 -24.3416 -24.3412 -24.341 -24.3415 -24.3414 
-24.3402 -24.3401 -24.3405 -24.3404 -24.3399 -24.3398 -24.3403 -24.3401 -24.3409 
-24.3408 -24.3413 -24.3412 -24.3406 -24.3405 -24.341 -24.3409 -24.3382 -24.3381 
-24.3386 -24.3384 -24.3379 -24.3378 -24.3383 -24.3382 -24.3389 -24.3388 -24.3393 
-24.3391 -24.3386 -24.3385 -24.339 -24.3388 -24.3377 -24.3375 -24.338 -24.3379 
-24.3374 -24.3373 -24.3377 -24.3376 -24.3384 -24.3382 -24.3387 -24.3386 -24.3381 
-24.338 -24.3384 -24.3384 -24.3396 -24.3395 -24.34 -24.3398 -24.3393 -24.3392 
-24.3397 -24.3396 -24.3403 -24.3402 -24.3407 -24.3405 -24.34 -24.3399 -24.3404 
-24.3403 -24.3391 -24.3389 -24.3394 -24.3393 -24.3388 -24.3387 -24.3391 -24.3391 
-24.3398 -24.3396 -24.3401 -24.34 -24.3396 -24.3395 -24.3399 -24.3398 -24.3419 
-24.3419 -24.3424 -24.3424 -24.3419 -24.3418 -24.3423 -24.3422 -24.3428 -24.3428 
-24.3432 -24.3432 -24.3427 -24.3426 -24.3431 -24.343 -24.3417 -24.3415 -24.3421 
-24.3419 -24.3414 -24.3412 -24.3418 -24.3416 -24.3424 -24.3423 -24.3429 -24.3427 
-24.3421 -24.342 -24.3426 -24.3424 -24.3437 -24.3436 -24.3441 -24.344 -24.3435 
-24.3435 -24.344 -24.3438 -24.3444 -24.3444 -24.3448 -24.3447 -24.3443 -24.3484 
-24.3482 -24.3442 -24.3447 -24.3486 -24.3445 -24.3433 -24.3475 -24.3474 -24.3431 
-24.3437 -24.3483 -24.3435 -24.3429 -24.3428 -24.3433 -24.3432 -24.344 -24.3438 
-24.3444 -24.3442 -24.3437 -24.3435 -24.344 -24.3439 -24.3411 -24.3409 -24.3414 
-24.3413 -24.3408 -24.3486 -24.3407 -24.3412 -24.3484 -24.341 -24.3419 -24.3483 
-24.3417 -24.3422 -24.3468 -24.3421 -24.3415 -24.3414 -24.3419 -24.3418 -24.3405 
-24.3404 -24.3409 -24.3407 -24.3403 -24.3401 -24.3407 -24.3405 -24.3412 -24.3412 
-24.3417 -24.3415 -24.341 -24.3392 -24.3405 -24.3409 -24.3414 -24.3428 -24.3413 
-24.3426 -24.312 -24.3181 -24.3424 -24.343 -24.3224 -24.3428 -24.3423 -24.3422 
-24.3427 -24.3425 -24.3433 -24.3431 -24.3437 -24.3435 -24.343 -24.3428 -24.3433 
-24.3432 -24.3421 -24.3419 -24.3424 -24.3423 -24.3417 -24.3459 -24.3417 -24.3421 
-24.3433 -24.3421 -24.3427 -24.337 -24.3426 -24.3431 -24.3376 -24.3429 -24.3425 
-24.3424 -24.3428 -24.3484 -24.3485 -24.3442 -24.3414 -24.347 -24.3344 -24.3396 
-24.3297 -24.3332 -24.3211 -24.3172 -24.2914 -24.3161 -24.3095 -24.2784 -24.2702 
-24.2714 -24.2848 -24.2874 -24.2523 -24.2716 -24.2651 -24.3204 -24.3298 -24.3086 
-24.3256 -24.2724 -24.2905 -24.2787 -24.3039 -24.3162 -24.3083 -24.3165 -24.3333 
-24.3349 -24.3476 -24.3052 -24.275 -24.3044 -24.2834 -24.2504 -24.2295 -24.2596 
-24.2261 -24.3176 -24.3062 -24.3369 -24.33 -24.2992 -24.2734 -24.3385 -24.3386 
-24.2901 -24.223 -24.2862 -24.2169 -24.1867 -24.2069 -24.1793 -24.1997 -24.2748 
-24.2164 -24.2439 -24.201 -24.1855 -24.206 -24.1799 -24.1989 -24.2636 -24.3308 
-24.2554 -24.3194 -24.3839 -24.4197 -24.3752 -24.4198 -24.258 -24.3187 -24.2467 
-24.3076 -24.3735 -24.4159 -24.3622 -24.3927 -24.2069 -24.1798 -24.202 -24.1887 
-24.1665 -24.1809 -24.1791 -24.1835 -24.2492 -24.2408 -24.3256 -24.3107 -24.2313 
-24.229 -24.2961 -24.295 -24.224 -24.2801 -24.2117 -24.2512 -24.3256 -24.344 
-24.2833 -24.2975 -24.2383 -24.2514 -24.297 -24.2904 -24.2659 -24.2762 -24.2834 
-24.2801 -24.2945 -24.3552 -24.2845 -24.3458 -24.2804 -24.34 -24.2974 -24.3614 
-24.4067 -24.4002 -24.4308 -24.4286 -24.3987 -24.4102 -24.4329 -24.4331 -24.3159 
-24.3731 -24.3113 -24.3664 -24.2927 -24.3555 -24.2738 -24.3426 -24.4088 -24.4032 
-24.4211 -24.4167 -24.3994 -24.3956 -24.4187 -24.4198 -24.4202 -24.4231 -24.3641 
-24.3732 -24.4297 -24.4221 -24.3895 -24.3819 -24.2809 -24.2946 -24.2064 -24.2155 
-24.3277 -24.3291 -24.2599 -24.2778 -24.4069 -24.4073 -24.3723 -24.382 -24.417 
-24.4193 -24.3981 -24.396 -24.3302 -24.3519 -24.2908 -24.32 -24.3687 -24.3534 
-24.3344 -24.307 -24.3234 -24.332 -24.266 -24.3372 -24.3321 -24.2749 -24.3424 
-24.3378 -24.3377 -24.3527 -24.2902 -24.3461 -24.2946 -24.3369 -24.3972 -24.3967 
-24.4214 -24.4188 -24.3847 -24.3671 -24.4035 -24.3897 -24.3531 -24.3582 -24.3699 
-24.2854 -24.3219 -24.3656 -24.2808 -24.3266 -24.2966 -24.3562 -24.3119 -24.3787 
-24.3533 -24.3651 -24.3837 -24.3947 -24.4014 -24.4245 -24.4189 -24.4286 -24.4174 
-24.4155 -24.3872 -24.3495 -24.3412 -24.388 -24.4081 -24.3632 -24.4084 -24.3933 
-24.3512 -24.3434 -24.4064 -24.3312 -24.3538 -24.3371 -24.2689 -24.2713 -24.3589 
-24.3768 -24.3053 -24.3306 -24.4117 -24.4137 -24.4128 -24.4085 -24.417 -24.4119 
-24.4007 -24.3894 -24.3779 -24.3708 -24.3309 -24.3742 -24.3231 -24.3641 -24.3664 
-24.3572 -24.3186 -24.3565 -24.3181 -24.182 -24.349 -24.1798 -24.2223 -24.2174 
-24.221 -24.2494 -24.2426 -24.2627 -24.283 -24.2823 -24.3206 -24.3216 -24.2932 
-24.2965 -24.3243 -24.3179 -24.2657 -24.2887 -24.2633 -24.2623 -24.2974 -24.2663 
-24.2607 -24.2355 -24.2765 -24.3456 -24.2535 -24.2945 -24.3412 -24.2703 -24.242 
-24.3473 -24.2289 -24.2579 -24.3425 -24.2552 -24.3333 -24.3336 -24.3359 -24.3357 
-24.333 -24.3274 -24.3349 -24.3329 -24.3365 -24.3363 -24.3368 -24.3367 -24.3359 
-24.3354 -24.3365 -24.3363 -24.3141 -24.3582 -24.3007 -24.3286 -24.3791 -24.3242 
-24.2945 -24.359 -24.2957 -24.3224 -24.379 -24.3233 -24.3346 -24.3335 -24.3362 
-24.3359 -24.3331 -24.3333 -24.3358 -24.3356 -24.2193 -24.2076 -24.1982 -24.1837 
-24.2428 -24.2802 -24.2094 -24.2462 -24.2179 -24.3477 -24.2194 -24.2621 -24.344 
-24.2748 -24.2335 -24.33 -24.2533 -24.2833 -24.3312 -24.2892 -24.2894 -24.2868 
-24.2624 -24.2663 -24.2849 -24.2874 -24.2692 -24.274 -24.2667 -24.2733 -24.2958 
-24.3007 -24.2779 -24.2813 -24.3029 -24.3032 -24.3022 -24.3573 -24.3108 -24.3251 
-24.367 -24.3274 -24.3162 -24.3521 -24.3183 -24.3296 -24.3597 -24.3306 -24.3334 
-24.3335 -24.3355 -24.3354 -24.3339 -24.3342 -24.3353 -24.3354 -24.3208 -24.3226 
-24.3312 -24.3317 -24.323 -24.3227 -24.3317 -24.332 -24.3343 -24.3345 -24.3354 
-24.3356 -24.3347 -24.3351 -24.3358 -24.3362 -24.3105 -24.3703 -24.2966 -24.3409 
-24.2762 -24.3219 -24.2608 -24.3146 -24.4127 -24.3793 -24.4173 -24.3961 -24.3601 
-24.3534 -24.3848 -24.3777 -24.3349 -24.3336 -24.3233 -24.3035 -24.3137 -24.2837 
-24.2459 -24.2987 -24.225 -24.2715 -24.2064 -24.2526 -24.2127 -24.2673 -24.3391 
-24.3135 -24.3207 -24.3667 -24.302 -24.3577 -24.3136 -24.2605 -24.3353 -24.3597 
-24.2417 -24.3868 -24.3995 -24.3902 -24.3765 -24.372 -24.2848 -24.3074 -24.3903 
-24.2591 -24.387 -24.3769 -24.3759 -24.3507 -24.3473 -24.2292 -24.3225 -24.2138 
-24.3222 -24.3489 -24.3474 -24.3184 -24.3096 -24.3766 -24.3699 -24.3608 -24.3463 
-24.3792 -24.4122 -24.361 -24.4 -24.3194 -24.2817 -24.2599 -24.1987 -24.2934 
-24.3419 -24.2092 -24.2736 -24.2809 -24.2891 -24.2276 -24.2441 -24.2504 -24.3109 