/*--------------------------------*- C++ -*----------------------------------*\
  =========                 |
  \\      /  F ield         | OpenFOAM: The Open Source CFD Toolbox
   \\    /   O peration     | Website:  https://openfoam.org
    \\  /    A nd           | Version:  8
     \\/     M anipulation  |
\*---------------------------------------------------------------------------*/
FoamFile
{
    version     2.0;
    format      ascii;
    class       volScalarField;
    location    "3";
    object      p;
}
// * * * * * * * * * * * * * * * * * * * * * * * * * * * * * * * * * * * * * //

dimensions      [0 2 -2 0 0 0 0];

internalField   nonuniform List<scalar> 
400
(
-7.22749e-07
-0.181852
-0.272948
-0.282337
-0.22232
-0.0998515
0.0828545
0.318389
0.591145
0.884752
1.1793
1.45607
1.70535
1.92309
2.10946
2.26264
2.36561
2.38529
2.29422
2.08315
0.176882
0.0129137
-0.0749814
-0.0915366
-0.0447974
0.0599767
0.218155
0.424528
0.667851
0.926775
1.18127
1.41845
1.62943
1.81015
1.96371
2.08959
2.1702
2.17429
2.08039
1.88428
0.245025
0.107042
0.0273571
0.0123262
0.0569442
0.156151
0.30764
0.50095
0.724819
0.962571
1.19307
1.40253
1.58613
1.74423
1.88012
1.99071
2.05846
2.05648
1.97064
1.80428
0.225427
0.123624
0.0626935
0.0592079
0.114819
0.219718
0.371152
0.561341
0.776094
0.998282
1.21036
1.40118
1.56739
1.71112
1.83637
1.93904
2.00251
2.00341
1.93346
1.80408
0.14274
0.0830697
0.0528628
0.0715959
0.143745
0.262196
0.420387
0.610085
0.819031
1.03083
1.23054
1.40939
1.56484
1.70028
1.82056
1.92119
1.98706
1.99784
1.95007
1.86188
0.023139
0.00731162
0.0115521
0.0597306
0.154196
0.287917
0.455115
0.64699
0.852387
1.05734
1.25006
1.42375
1.57609
1.71028
1.83068
1.93344
2.00659
2.03316
2.01276
1.96773
-0.116119
-0.0891935
-0.0506908
0.0276039
0.147087
0.29773
0.475146
0.671796
0.877309
1.08
1.27147
1.44692
1.60349
1.74282
1.86815
1.97696
2.06095
2.10635
2.11479
2.11105
-0.265858
-0.20067
-0.130094
-0.0226223
0.121751
0.290943
0.480836
0.685048
0.895135
1.10184
1.29841
1.48061
1.64549
1.79399
1.92846
2.04685
2.14354
2.20756
2.24252
2.27646
-0.424247
-0.325368
-0.225586
-0.0901103
0.0788885
0.268014
0.473058
0.688178
0.907111
1.12299
1.3293
1.52118
1.69637
1.85645
2.00311
2.13357
2.244
2.32593
2.38438
2.45227
-0.590519
-0.461834
-0.335573
-0.173654
0.0199421
0.230376
0.453393
0.682843
0.913744
1.14136
1.35973
1.56341
1.75106
1.92502
2.08596
2.23014
2.35542
2.45557
2.53569
2.63248
-0.7618
-0.607775
-0.458009
-0.271318
-0.0532407
0.179531
0.422953
0.669837
0.915079
1.15548
1.38679
1.60447
1.80777
1.99829
2.17491
2.33366
2.47456
2.59281
2.69292
2.81208
-0.935115
-0.761675
-0.591869
-0.381884
-0.139179
0.11695
0.382272
0.64855
0.909917
1.16432
1.41007
1.64479
1.86775
2.07796
2.27183
2.4462
2.60341
2.73851
2.85515
2.98992
-1.10893
-0.923637
-0.737435
-0.50529
-0.237318
0.0434303
0.330982
0.617237
0.89649
1.16801
1.43226
1.68863
1.93533
2.16814
2.38168
2.57419
2.74949
2.90126
3.03024
3.17161
-1.28415
-1.09598
-0.896233
-0.642551
-0.348836
-0.042268
0.267725
0.574586
0.874946
1.16929
1.45844
1.74146
2.0147
2.27193
2.50822
2.72296
2.91952
3.09052
3.22976
3.36596
-1.4676
-1.28609
-1.07296
-0.796577
-0.476732
-0.143421
0.190963
0.521097
0.847381
1.17114
1.49146
1.80513
2.10677
2.39053
2.6534
2.89516
3.11754
3.3121
3.46421
3.58898
-1.68011
-1.51026
-1.27734
-0.972929
-0.625126
-0.26384
0.0988837
0.458046
0.815717
1.17332
1.52837
1.87575
2.20912
2.52316
2.81599
3.08878
3.3444
3.57145
3.74839
3.86988
-1.97211
-1.79741
-1.52585
-1.18244
-0.80116
-0.407869
-0.0122024
0.381635
0.775438
1.17033
1.56346
1.94831
2.31704
2.66483
2.991
3.29949
3.5981
3.87503
4.10575
4.26101
-2.47498
-2.19433
-1.83143
-1.43031
-1.0062
-0.575966
-0.1445
0.287078
0.72093
1.15749
1.59269
2.01801
2.42402
2.80703
3.1703
3.52085
3.86953
4.21903
4.57325
4.89326
-3.54516
-2.76157
-2.1591
-1.68035
-1.21573
-0.752865
-0.289197
0.179584
0.656575
1.13911
1.6193
2.08745
2.53335
2.94999
3.34199
3.72565
4.12069
4.56363
5.19586
6.09938
-5.56258
-3.47042
-2.43393
-1.88958
-1.41615
-0.938989
-0.448763
0.0591744
0.586146
1.12602
1.66502
2.18667
2.67817
3.13221
3.54657
3.93131
4.32064
4.82532
5.89746
8.13056
)
;

boundaryField
{
    movingWall
    {
        type            zeroGradient;
    }
    fixedWalls
    {
        type            zeroGradient;
    }
    frontAndBack
    {
        type            empty;
    }
}


// ************************************************************************* //
