/*--------------------------------*- C++ -*----------------------------------*\
  =========                 |
  \\      /  F ield         | OpenFOAM: The Open Source CFD Toolbox
   \\    /   O peration     | Website:  https://openfoam.org
    \\  /    A nd           | Version:  8
     \\/     M anipulation  |
\*---------------------------------------------------------------------------*/
FoamFile
{
    version     2.0;
    format      ascii;
    class       volVectorField;
    location    "3";
    object      U;
}
// * * * * * * * * * * * * * * * * * * * * * * * * * * * * * * * * * * * * * //

dimensions      [0 1 -1 0 0 0 0];

internalField   nonuniform List<vector> 
400
(
(-0.0122912 0.0137375 0)
(-0.0444069 0.0262853 0)
(-0.0945013 0.0273195 0)
(-0.143364 0.02624 0)
(-0.188965 0.024194 0)
(-0.229402 0.021305 0)
(-0.263396 0.0173967 0)
(-0.290329 0.0131751 0)
(-0.309151 0.00859079 0)
(-0.318832 0.00356294 0)
(-0.320202 -0.00124132 0)
(-0.313225 -0.00605104 0)
(-0.297563 -0.0108672 0)
(-0.274036 -0.0151423 0)
(-0.243124 -0.0189952 0)
(-0.204994 -0.0228767 0)
(-0.159943 -0.0266082 0)
(-0.109133 -0.0294825 0)
(-0.0530719 -0.0296489 0)
(-0.0157176 -0.0161169 0)
(-0.02111 0.0436526 0)
(-0.0761713 0.0844999 0)
(-0.149069 0.0876629 0)
(-0.217988 0.0829194 0)
(-0.281436 0.0752097 0)
(-0.337379 0.0653458 0)
(-0.384389 0.0535612 0)
(-0.420503 0.0397781 0)
(-0.445938 0.0251545 0)
(-0.460479 0.00991706 0)
(-0.462773 -0.00533131 0)
(-0.453006 -0.0201069 0)
(-0.432351 -0.0343652 0)
(-0.400751 -0.0477748 0)
(-0.3577 -0.0604553 0)
(-0.304184 -0.0727786 0)
(-0.241526 -0.0845255 0)
(-0.170693 -0.0946561 0)
(-0.0904282 -0.0961985 0)
(-0.0260024 -0.0521073 0)
(-0.0176544 0.0842274 0)
(-0.0636319 0.150025 0)
(-0.119446 0.151693 0)
(-0.169944 0.1416 0)
(-0.215857 0.127951 0)
(-0.254891 0.110395 0)
(-0.287587 0.0900371 0)
(-0.313486 0.0673416 0)
(-0.331005 0.0425421 0)
(-0.340753 0.0170786 0)
(-0.343105 -0.00817474 0)
(-0.337285 -0.0330933 0)
(-0.323385 -0.0572327 0)
(-0.3016 -0.0800972 0)
(-0.271842 -0.101939 0)
(-0.23464 -0.123234 0)
(-0.190146 -0.143979 0)
(-0.138323 -0.163522 0)
(-0.0758322 -0.171634 0)
(-0.0215019 -0.100194 0)
(-0.0126264 0.114222 0)
(-0.0459388 0.196596 0)
(-0.0835307 0.195108 0)
(-0.114826 0.1798 0)
(-0.143092 0.161046 0)
(-0.167088 0.138805 0)
(-0.186429 0.112715 0)
(-0.201471 0.0841151 0)
(-0.21232 0.0537416 0)
(-0.218936 0.0221351 0)
(-0.220953 -0.0094687 0)
(-0.21822 -0.0402856 0)
(-0.211089 -0.0702165 0)
(-0.199245 -0.0991498 0)
(-0.182219 -0.127165 0)
(-0.160302 -0.154738 0)
(-0.133056 -0.182429 0)
(-0.100143 -0.210756 0)
(-0.0569173 -0.226948 0)
(-0.0163106 -0.136963 0)
(-0.00768226 0.135077 0)
(-0.0298204 0.227438 0)
(-0.0521107 0.22202 0)
(-0.0694384 0.202641 0)
(-0.0844703 0.18005 0)
(-0.0966294 0.154494 0)
(-0.106806 0.125566 0)
(-0.114829 0.0937024 0)
(-0.120768 0.0599445 0)
(-0.124971 0.0253003 0)
(-0.127253 -0.00931907 0)
(-0.127343 -0.0433949 0)
(-0.125167 -0.0766958 0)
(-0.120224 -0.109031 0)
(-0.112233 -0.140717 0)
(-0.101366 -0.172579 0)
(-0.0867113 -0.205689 0)
(-0.0680245 -0.241558 0)
(-0.0402792 -0.265617 0)
(-0.0113598 -0.163841 0)
(-0.00291534 0.147349 0)
(-0.0159405 0.245096 0)
(-0.0255486 0.235859 0)
(-0.0315628 0.213274 0)
(-0.0371034 0.1888 0)
(-0.0410174 0.161463 0)
(-0.0443913 0.131163 0)
(-0.047389 0.0983391 0)
(-0.0502524 0.0636428 0)
(-0.0531478 0.0279196 0)
(-0.0557432 -0.00786856 0)
(-0.057831 -0.043125 0)
(-0.0592087 -0.0777211 0)
(-0.0592197 -0.111701 0)
(-0.0575498 -0.145572 0)
(-0.0542578 -0.180236 0)
(-0.0483668 -0.217161 0)
(-0.0401784 -0.258762 0)
(-0.0250995 -0.289469 0)
(-0.00641601 -0.181639 0)
(0.00110419 0.152293 0)
(-0.00395982 0.251166 0)
(-0.00344862 0.23941 0)
(-0.000692625 0.214897 0)
(0.000977683 0.189525 0)
(0.00305558 0.162066 0)
(0.00441831 0.132051 0)
(0.00478966 0.0996888 0)
(0.00389573 0.0655563 0)
(0.00171855 0.0304243 0)
(-0.0012959 -0.00497875 0)
(-0.00493339 -0.0402133 0)
(-0.00884972 -0.0751364 0)
(-0.0122609 -0.109825 0)
(-0.014801 -0.144804 0)
(-0.0164838 -0.181073 0)
(-0.0165441 -0.220403 0)
(-0.0159807 -0.265817 0)
(-0.0112533 -0.301345 0)
(-0.00157931 -0.191328 0)
(0.00452458 0.151194 0)
(0.0059695 0.247517 0)
(0.0148846 0.234435 0)
(0.0243991 0.209643 0)
(0.0313548 0.184614 0)
(0.0377991 0.158148 0)
(0.0424866 0.129574 0)
(0.0451404 0.0988876 0)
(0.0455117 0.0665153 0)
(0.0436377 0.0330667 0)
(0.0400056 -0.00101497 0)
(0.0349778 -0.0355182 0)
(0.0291214 -0.070233 0)
(0.0233461 -0.105176 0)
(0.0180568 -0.140738 0)
(0.0131979 -0.177862 0)
(0.00928118 -0.21839 0)
(0.00440767 -0.265434 0)
(0.000843512 -0.303399 0)
(0.0027552 -0.193707 0)
(0.00763424 0.144772 0)
(0.0143246 0.235937 0)
(0.0299343 0.222915 0)
(0.044544 0.199158 0)
(0.0553484 0.175582 0)
(0.0650071 0.151015 0)
(0.0720983 0.124794 0)
(0.0763512 0.0967004 0)
(0.0775489 0.0669491 0)
(0.0757043 0.03591 0)
(0.0712541 0.00378087 0)
(0.0647989 -0.0294724 0)
(0.0572226 -0.0636353 0)
(0.0495653 -0.0986192 0)
(0.0423128 -0.134581 0)
(0.035394 -0.172121 0)
(0.0292203 -0.212738 0)
(0.020701 -0.259213 0)
(0.0108925 -0.296743 0)
(0.00640443 -0.189645 0)
(0.0103929 0.134013 0)
(0.0212135 0.218108 0)
(0.0418885 0.206496 0)
(0.0602333 0.184884 0)
(0.0738449 0.163552 0)
(0.0859593 0.141495 0)
(0.0949663 0.118285 0)
(0.100488 0.0935285 0)
(0.102318 0.067168 0)
(0.100399 0.0392237 0)
(0.0950383 0.00963001 0)
(0.0870252 -0.0218743 0)
(0.0775954 -0.0552098 0)
(0.0679802 -0.0902245 0)
(0.0588948 -0.126754 0)
(0.0504555 -0.164737 0)
(0.0431398 -0.204769 0)
(0.0327 -0.248988 0)
(0.0187819 -0.283137 0)
(0.00951959 -0.18044 0)
(0.012697 0.119741 0)
(0.0264483 0.195532 0)
(0.0505511 0.186585 0)
(0.071428 0.167925 0)
(0.0870957 0.149218 0)
(0.101293 0.130014 0)
(0.112174 0.110228 0)
(0.119054 0.0894206 0)
(0.121626 0.0671941 0)
(0.119705 0.0431257 0)
(0.113456 0.0167425 0)
(0.103737 -0.01246 0)
(0.0920454 -0.0446814 0)
(0.079879 -0.0798323 0)
(0.068428 -0.117405 0)
(0.0583856 -0.156417 0)
(0.0504439 -0.196022 0)
(0.0397081 -0.237106 0)
(0.0239196 -0.26556 0)
(0.0119213 -0.167412 0)
(0.014358 0.1029 0)
(0.029509 0.169823 0)
(0.0552016 0.164515 0)
(0.0774362 0.149108 0)
(0.0946722 0.132955 0)
(0.110903 0.116655 0)
(0.123954 0.10045 0)
(0.132651 0.084029 0)
(0.136425 0.066617 0)
(0.134868 0.0473457 0)
(0.127982 0.0251637 0)
(0.116573 -0.000847919 0)
(0.102188 -0.0313722 0)
(0.086602 -0.0665826 0)
(0.0717289 -0.105703 0)
(0.0592709 -0.146725 0)
(0.0504972 -0.187013 0)
(0.0405054 -0.22499 0)
(0.0254109 -0.246436 0)
(0.0130778 -0.152077 0)
(0.0149858 0.0848862 0)
(0.0293753 0.143201 0)
(0.0543371 0.141938 0)
(0.0766983 0.12926 0)
(0.095235 0.114918 0)
(0.113671 0.10111 0)
(0.129396 0.0883946 0)
(0.140696 0.0766837 0)
(0.146562 0.0648353 0)
(0.146254 0.0514457 0)
(0.139468 0.0347895 0)
(0.126785 0.0132724 0)
(0.109561 -0.0145365 0)
(0.0897864 -0.0493412 0)
(0.0702053 -0.0903396 0)
(0.0537784 -0.134661 0)
(0.0431089 -0.177747 0)
(0.034171 -0.21413 0)
(0.0224693 -0.228216 0)
(0.0127762 -0.136946 0)
(0.0138521 0.0680338 0)
(0.0242149 0.118779 0)
(0.0454207 0.120834 0)
(0.0665529 0.109136 0)
(0.0863017 0.0950297 0)
(0.10732 0.0827541 0)
(0.12638 0.0732859 0)
(0.141299 0.0664382 0)
(0.150435 0.060864 0)
(0.152664 0.0544899 0)
(0.147298 0.0448425 0)
(0.134463 0.0294434 0)
(0.11506 0.00589725 0)
(0.0910659 -0.0273304 0)
(0.0658382 -0.0699283 0)
(0.0434941 -0.118831 0)
(0.0288181 -0.167677 0)
(0.0202651 -0.20627 0)
(0.0137303 -0.21495 0)
(0.0104674 -0.125024 0)
(0.00969931 0.0561945 0)
(0.0110684 0.10087 0)
(0.0249206 0.103426 0)
(0.0436272 0.0893729 0)
(0.0647249 0.073113 0)
(0.0887948 0.0608849 0)
(0.11164 0.0542325 0)
(0.13091 0.0523394 0)
(0.144532 0.0534601 0)
(0.150856 0.0548973 0)
(0.148794 0.0535237 0)
(0.1379 0.0460231 0)
(0.118403 0.0289952 0)
(0.0917902 -0.000269345 0)
(0.0612448 -0.042819 0)
(0.0314708 -0.0966796 0)
(0.00971908 -0.154389 0)
(-0.00138369 -0.201205 0)
(-0.00243943 -0.210283 0)
(0.00481162 -0.120019 0)
(0.000660611 0.0558337 0)
(-0.0137744 0.0952871 0)
(-0.0104017 0.0919078 0)
(0.00562409 0.0702971 0)
(0.0282757 0.0489512 0)
(0.0553853 0.0354301 0)
(0.0818094 0.0309298 0)
(0.105073 0.0338056 0)
(0.1233 0.0414601 0)
(0.134764 0.0507006 0)
(0.138186 0.0581041 0)
(0.132543 0.0599401 0)
(0.117123 0.0519667 0)
(0.0921411 0.0299168 0)
(0.0592617 -0.00949363 0)
(0.0226457 -0.066523 0)
(-0.00888694 -0.134261 0)
(-0.0276024 -0.196025 0)
(-0.025679 -0.216228 0)
(-0.00491004 -0.128328 0)
(-0.0147166 0.0778964 0)
(-0.0521525 0.107982 0)
(-0.059058 0.0860846 0)
(-0.0438625 0.0504535 0)
(-0.0197578 0.0218751 0)
(0.00821604 0.00666763 0)
(0.0350679 0.00401089 0)
(0.0592687 0.0109508 0)
(0.0798142 0.0240828 0)
(0.0957399 0.0401195 0)
(0.106158 0.0557224 0)
(0.109664 0.067003 0)
(0.104279 0.0693011 0)
(0.0882831 0.0576225 0)
(0.0609201 0.0267645 0)
(0.0240625 -0.0275057 0)
(-0.0159492 -0.10306 0)
(-0.048632 -0.184786 0)
(-0.0529442 -0.231553 0)
(-0.0176935 -0.157135 0)
(-0.0324263 0.136632 0)
(-0.0949814 0.139375 0)
(-0.102677 0.081182 0)
(-0.0842906 0.0279015 0)
(-0.0632024 -0.00576023 0)
(-0.0429541 -0.0207177 0)
(-0.0252976 -0.0211864 0)
(-0.00902033 -0.011523 0)
(0.00707447 0.00461154 0)
(0.0234706 0.0240278 0)
(0.0398527 0.0438068 0)
(0.0548968 0.0611694 0)
(0.0664641 0.0724769 0)
(0.0713994 0.0724368 0)
(0.0646643 0.0547278 0)
(0.0422022 0.012866 0)
(0.00453195 -0.0589634 0)
(-0.0423464 -0.156475 0)
(-0.0678615 -0.246457 0)
(-0.0269777 -0.212099 0)
(-0.0131232 0.215367 0)
(-0.072342 0.166513 0)
(-0.0531614 0.0710899 0)
(-0.0279173 0.0106555 0)
(-0.0220556 -0.0195265 0)
(-0.0264569 -0.0304935 0)
(-0.0338934 -0.0294229 0)
(-0.0389554 -0.0209897 0)
(-0.0383034 -0.00808854 0)
(-0.0300275 0.00720984 0)
(-0.0128963 0.0231985 0)
(0.0127743 0.038317 0)
(0.0442118 0.0505013 0)
(0.077305 0.0567986 0)
(0.106536 0.0524462 0)
(0.12179 0.0303544 0)
(0.109614 -0.019026 0)
(0.0570712 -0.106984 0)
(-0.00810706 -0.22792 0)
(0.00918184 -0.261756 0)
(0.281316 0.122176 0)
(0.327578 0.0828831 0)
(0.406861 0.0277644 0)
(0.443962 -0.00232932 0)
(0.440405 -0.0151879 0)
(0.421948 -0.0188798 0)
(0.401133 -0.0176603 0)
(0.383926 -0.0135687 0)
(0.373765 -0.00765074 0)
(0.372465 -0.000911079 0)
(0.38052 0.00587244 0)
(0.397875 0.0125523 0)
(0.424298 0.0187406 0)
(0.457413 0.0233353 0)
(0.492266 0.0248292 0)
(0.521211 0.0201351 0)
(0.528612 0.00404684 0)
(0.482385 -0.0323823 0)
(0.374294 -0.0961041 0)
(0.299114 -0.134698 0)
)
;

boundaryField
{
    movingWall
    {
        type            fixedValue;
        value           uniform (1 0 0);
    }
    fixedWalls
    {
        type            noSlip;
    }
    frontAndBack
    {
        type            empty;
    }
}


// ************************************************************************* //
