# vtk DataFile Version 5.1
vtk output
ASCII
DATASET POLYDATA
POINTS 5017 float
-2.95593 -2.25 1.1 -2.91015 -2.25 1.1 -2.86164 -2.25 1.1 
-2.81054 -2.25 1.1 -2.75794 -2.25 1.1 -2.70512 -2.25 1.1 
-2.65289 -2.25 1.1 -2.60145 -2.25 1.1 -2.55065 -2.25 1.1 
-2.50026 -2.25 1.1 -2.45009 -2.25 1.1 -2.40003 -2.25 1.1 
-2.35001 -2.25 1.1 -2.3 -2.25 1.1 -2.25 -2.25 1.1 
-2.2 -2.25 1.1 -2.15 -2.25 1.1 -2.1 -2.25 1.1 
-2.05 -2.25 1.1 -2 -2.25 1.1 -1.95 -2.25 1.1 
-1.9 -2.25 1.1 -1.85 -2.25 1.1 -1.8 -2.25 1.1 
-1.75 -2.25 1.1 -1.7 -2.25 1.1 -1.65 -2.25 1.1 
-1.6 -2.25 1.1 -1.55 -2.25 1.1 -1.5 -2.25 1.1 
-1.45 -2.25 1.1 -1.4 -2.25 1.1 -1.35 -2.25 1.1 
-1.3 -2.25 1.1 -1.25 -2.25 1.1 -1.2 -2.25 1.1 
-1.15 -2.25 1.1 -1.1 -2.25 1.1 -1.05 -2.25 1.1 
-1 -2.25 1.1 -0.95 -2.25 1.1 -0.9 -2.25 1.1 
-0.85 -2.25 1.1 -0.8 -2.25 1.1 -0.75 -2.25 1.1 
-0.7 -2.25 1.1 -0.65 -2.25 1.1 -0.6 -2.25 1.1 
-0.55 -2.25 1.1 -0.5 -2.25 1.1 -0.45 -2.25 1.1 
-0.4 -2.25 1.1 -0.35 -2.25 1.1 -0.3 -2.25 1.1 
-0.25 -2.25 1.1 -0.2 -2.25 1.1 -0.15 -2.25 1.1 
-0.1 -2.25 1.1 -0.0499997 -2.25 1.1 4.1863e-07 -2.25 1.1 
0.0500003 -2.25 1.1 0.0999999 -2.25 1.1 0.15 -2.25 1.1 
0.2 -2.25 1.1 0.25 -2.25 1.1 0.3 -2.25 1.1 
0.35 -2.25 1.1 0.4 -2.25 1.1 0.45 -2.25 1.1 
0.5 -2.25 1.1 0.55 -2.25 1.1 0.6 -2.25 1.1 
0.65 -2.25 1.1 0.7 -2.25 1.1 0.75 -2.25 1.1 
0.8 -2.25 1.1 0.85 -2.25 1.1 0.9 -2.25 1.1 
0.95 -2.25 1.1 1 -2.25 1.1 1.05 -2.25 1.1 
1.1 -2.25 1.1 1.15 -2.25 1.1 1.2 -2.25 1.1 
1.25 -2.25 1.1 1.3 -2.25 1.1 1.35 -2.25 1.1 
1.4 -2.25 1.1 1.45 -2.25 1.1 1.5 -2.25 1.1 
1.55 -2.25 1.1 1.6 -2.25 1.1 1.65 -2.25 1.1 
1.7 -2.25 1.1 1.75 -2.25 1.1 1.8 -2.25 1.1 
1.85001 -2.25 1.1 1.90003 -2.25 1.1 1.95009 -2.25 1.1 
2.00026 -2.25 1.1 2.05065 -2.25 1.1 2.10145 -2.25 1.1 
2.15289 -2.25 1.1 2.20512 -2.25 1.1 2.25794 -2.25 1.1 
2.31054 -2.25 1.1 2.36164 -2.25 1.1 2.41015 -2.25 1.1 
2.45593 -2.25 1.1 2.5 -2.25 1.1 -3 -2.25 1.1 
2.5 -2.21035 1.1 2.5 -2.16898 1.1 2.5 -2.12474 1.1 
2.5 -2.07746 1.1 2.5 -2.02793 1.1 2.5 -1.97728 1.1 
2.5 -1.92641 1.1 2.5 -1.87574 1.1 2.5 -1.87562 1.1 
2.5 -1.82536 1.1 2.5 -1.77519 1.1 2.5 -1.72517 1.1 
2.5 -1.67528 1.1 2.5 -1.62552 1.1 2.5 -1.57596 1.1 
2.5 -1.52666 1.1 2.5 -1.47773 1.1 2.5 -1.4292 1.1 
2.5 -1.38099 1.1 2.5 -1.38096 1.1 2.5 -0.18096 1.1 
2.5 -0.129298 1.1 2.5 -0.0779019 1.1 2.5 -0.0268527 1.1 
2.5 0.023892 1.1 2.5 0.0743837 1.1 2.5 0.124683 1.1 
2.5 0.174851 1.1 2.5 0.224936 1.1 2.5 0.274975 1.1 
2.5 0.324991 1.1 2.5 0.374998 1.1 2.5 0.424999 1.1 
2.5 0.475 1.1 2.5 0.525 1.1 2.5 0.575 1.1 
2.5 0.625 1.1 2.5 0.675 1.1 2.5 0.725 1.1 
2.5 0.775 1.1 2.5 0.825 1.1 2.5 0.875 1.1 
2.5 0.925 1.1 2.5 0.975 1.1 2.5 1.025 1.1 
2.5 1.075 1.1 2.5 1.125 1.1 2.5 1.175 1.1 
2.5 1.225 1.1 2.5 1.275 1.1 2.5 1.325 1.1 
2.5 1.375 1.1 2.5 1.42502 1.1 2.5 1.47505 1.1 
2.5 1.52514 1.1 2.5 1.57533 1.1 2.5 1.62573 1.1 
2.5 1.67641 1.1 2.5 1.72728 1.1 2.5 1.77793 1.1 
2.5 1.82746 1.1 2.5 1.87474 1.1 2.5 1.91898 1.1 
2.5 1.96035 1.1 2.5 2 1.1 -2.91015 2 1.1 
-2.95593 2 1.1 -2.86164 2 1.1 -2.81054 2 1.1 
-2.75794 2 1.1 -2.70512 2 1.1 -2.65289 2 1.1 
-2.60145 2 1.1 -2.55065 2 1.1 -2.50026 2 1.1 
-2.45009 2 1.1 -2.40003 2 1.1 -2.35001 2 1.1 
-2.3 2 1.1 -2.25 2 1.1 -2.2 2 1.1 
-2.15 2 1.1 -2.1 2 1.1 -2.05 2 1.1 
-2 2 1.1 -1.95 2 1.1 -1.9 2 1.1 
-1.85 2 1.1 -1.8 2 1.1 -1.75 2 1.1 
-1.7 2 1.1 -1.65 2 1.1 -1.6 2 1.1 
-1.55 2 1.1 -1.5 2 1.1 -1.45 2 1.1 
-1.4 2 1.1 -1.35 2 1.1 -1.3 2 1.1 
-1.25 2 1.1 -1.2 2 1.1 -1.15 2 1.1 
-1.1 2 1.1 -1.05 2 1.1 -1 2 1.1 
-0.95 2 1.1 -0.9 2 1.1 -0.85 2 1.1 
-0.8 2 1.1 -0.75 2 1.1 -0.7 2 1.1 
-0.65 2 1.1 -0.6 2 1.1 -0.55 2 1.1 
-0.5 2 1.1 -0.45 2 1.1 -0.4 2 1.1 
-0.35 2 1.1 -0.3 2 1.1 -0.25 2 1.1 
-0.2 2 1.1 -0.15 2 1.1 -0.1 2 1.1 
-0.0500001 2 1.1 1.71984e-07 2 1.1 0.0500002 2 1.1 
0.0999999 2 1.1 0.15 2 1.1 0.2 2 1.1 
0.25 2 1.1 0.3 2 1.1 0.35 2 1.1 
0.4 2 1.1 0.45 2 1.1 0.5 2 1.1 
0.55 2 1.1 0.6 2 1.1 0.65 2 1.1 
0.7 2 1.1 0.75 2 1.1 0.8 2 1.1 
0.85 2 1.1 0.9 2 1.1 0.95 2 1.1 
1 2 1.1 1.05 2 1.1 1.1 2 1.1 
1.15 2 1.1 1.2 2 1.1 1.25 2 1.1 
1.3 2 1.1 1.35 2 1.1 1.4 2 1.1 
1.45 2 1.1 1.5 2 1.1 1.55 2 1.1 
1.6 2 1.1 1.65 2 1.1 1.7 2 1.1 
1.75 2 1.1 1.8 2 1.1 1.85001 2 1.1 
1.90003 2 1.1 1.95009 2 1.1 2.00026 2 1.1 
2.05065 2 1.1 2.10145 2 1.1 2.15289 2 1.1 
2.20512 2 1.1 2.25794 2 1.1 2.31054 2 1.1 
2.36164 2 1.1 2.41015 2 1.1 2.45593 2 1.1 
-3 2 1.1 -3 -2.16898 1.1 -3 -2.21035 1.1 
-3 -2.12474 1.1 -3 -2.07746 1.1 -3 -2.02793 1.1 
-3 -1.97728 1.1 -3 -1.92641 1.1 -3 -1.87573 1.1 
-3 -1.82533 1.1 -3 -1.77514 1.1 -3 -1.72505 1.1 
-3 -1.67502 1.1 -3 -1.625 1.1 -3 -1.575 1.1 
-3 -1.525 1.1 -3 -1.475 1.1 -3 -1.425 1.1 
-3 -1.375 1.1 -3 -1.325 1.1 -3 -1.275 1.1 
-3 -1.225 1.1 -3 -1.175 1.1 -3 -1.125 1.1 
-3 -1.075 1.1 -3 -1.025 1.1 -3 -0.975 1.1 
-3 -0.925 1.1 -3 -0.875 1.1 -3 -0.825 1.1 
-3 -0.775 1.1 -3 -0.725 1.1 -3 -0.675 1.1 
-3 -0.625 1.1 -3 -0.575 1.1 -3 -0.525 1.1 
-3 -0.475 1.1 -3 -0.425 1.1 -3 -0.375002 1.1 
-3 -0.325008 1.1 -3 -0.275026 1.1 -3 -0.274907 1.1 
-3 -0.225075 1.1 -3 -0.17519 1.1 -3 -0.125436 1.1 
-3 -0.0759169 1.1 -3 -0.0267696 1.1 -3 0.0218416 1.1 
-3 0.0697566 1.1 -3 0.11687 1.1 -3 0.163225 1.1 
-3 0.2091 1.1 -3 0.209078 1.1 -3 1.46328 1.1 
-3 1.4091 1.1 -3 1.51699 1.1 -3 1.57005 1.1 
-3 1.62253 1.1 -3 1.67461 1.1 -3 1.72635 1.1 
-3 1.77749 1.1 -3 1.82727 1.1 -3 1.87466 1.1 
-3 1.91895 1.1 -3 1.96034 1.1 -3 0.209104 1.1 
-3 0.263755 1.1 -3 0.317686 1.1 -3 0.37059 1.1 
-3 0.422524 1.1 -3 0.473705 1.1 -3 0.524372 1.1 
-3 0.490554 1.1 -3 0.574719 1.1 -3 0.624885 1.1 
-3 0.674957 1.1 -3 0.724986 1.1 -3 0.774995 1.1 
-3 0.824994 1.1 -3 0.874984 1.1 -3 0.924954 1.1 
-3 0.974882 1.1 -3 1.02472 1.1 -3 1.0744 1.1 
-3 1.1238 1.1 -3 1.1728 1.1 -3 1.22125 1.1 
-3 1.26907 1.1 -3 1.31622 1.1 -3 1.36281 1.1 
2.5 -1.38096 1.1 2.5 -1.3288 1.1 2.5 -1.2771 1.1 
2.5 -1.22598 1.1 2.5 -1.17537 1.1 2.5 -1.12509 1.1 
2.5 -1.10843 1.1 2.5 -1.07499 1.1 2.5 -1.02497 1.1 
2.5 -0.974976 1.1 2.5 -0.924986 1.1 2.5 -0.874994 1.1 
2.5 -0.824998 1.1 2.5 -0.775001 1.1 2.5 -0.725005 1.1 
2.5 -0.675016 1.1 2.5 -0.625042 1.1 2.5 -0.575099 1.1 
2.5 -0.525213 1.1 2.5 -0.475423 1.1 2.5 -0.425778 1.1 
2.5 -0.376329 1.1 2.5 -0.327121 1.1 2.5 -0.278187 1.1 
2.5 -0.229496 1.1 -2.95509 -2.21053 1.1 2.45509 -2.21053 1.1 
2.45509 1.96053 1.1 -2.95443 -2.16881 1.1 -2.9551 1.96053 1.1 
-2.90805 1.961 1.1 -2.85844 1.96128 1.1 -2.95443 1.91878 1.1 
-2.95383 1.87379 1.1 -2.95346 1.82596 1.1 -2.95328 1.77632 1.1 
-2.95321 1.72572 1.1 -2.95321 1.67466 1.1 -2.95324 1.6233 1.1 
-2.95327 1.57165 1.1 -2.9533 1.51969 1.1 -2.95327 1.46764 1.1 
-2.95304 1.41655 1.1 -2.95286 1.3673 1.1 -2.95289 1.31914 1.1 
-2.95294 1.27094 1.1 -2.95297 1.2224 1.1 -2.953 1.17345 1.1 
-2.95301 1.12413 1.1 -2.95303 1.07455 1.1 -2.95303 1.02478 1.1 
-2.95304 0.974903 1.1 -2.95304 0.92496 1.1 -2.95305 0.874984 1.1 
-2.95305 0.824993 1.1 -2.95305 0.774994 1.1 -2.95305 0.724987 1.1 
-2.95305 0.674965 1.1 -2.95306 0.624911 1.1 -2.95307 0.574794 1.1 
-2.9531 0.524552 1.1 -2.97663 0.473898 1.1 -2.95314 0.474091 1.1 
-2.95315 0.465602 1.1 -2.9532 0.423276 1.1 -2.95331 0.371963 1.1 
-2.95344 0.320108 1.1 -2.95352 0.267993 1.1 -2.99999 0.209101 1.1 
-2.95329 0.216873 1.1 -2.95302 0.167732 1.1 -2.80714 1.96138 1.1 
2.40804 1.961 1.1 2.35844 1.96128 1.1 2.30714 1.96138 1.1 
2.25525 1.96132 1.1 2.20344 1.96123 1.1 2.15201 1.96115 1.1 
2.10106 1.9611 1.1 2.05051 1.96106 1.1 2.00022 1.96104 1.1 
1.95009 1.96103 1.1 1.90003 1.96102 1.1 1.85001 1.96102 1.1 
1.8 1.96102 1.1 1.75 1.96102 1.1 1.7 1.96102 1.1 
1.65 1.96102 1.1 1.6 1.96102 1.1 1.55 1.96102 1.1 
1.5 1.96102 1.1 1.45 1.96102 1.1 1.4 1.96102 1.1 
1.35 1.96102 1.1 1.3 1.96102 1.1 1.25 1.96102 1.1 
1.2 1.96102 1.1 1.15 1.96102 1.1 1.1 1.96102 1.1 
1.05 1.96102 1.1 1 1.96102 1.1 0.95 1.96102 1.1 
0.9 1.96102 1.1 0.85 1.96102 1.1 0.8 1.96102 1.1 
0.75 1.96102 1.1 0.7 1.96102 1.1 0.65 1.96102 1.1 
0.6 1.96102 1.1 0.55 1.96102 1.1 0.5 1.96102 1.1 
0.45 1.96102 1.1 0.4 1.96102 1.1 0.35 1.96102 1.1 
0.3 1.96102 1.1 0.25 1.96102 1.1 0.2 1.96102 1.1 
0.15 1.96102 1.1 0.1 1.96102 1.1 0.05 1.96102 1.1 
4.39479e-08 1.96102 1.1 -0.05 1.96102 1.1 -0.1 1.96102 1.1 
-0.15 1.96102 1.1 -0.2 1.96102 1.1 -0.25 1.96102 1.1 
-0.3 1.96102 1.1 -0.35 1.96102 1.1 -0.4 1.96102 1.1 
-0.45 1.96102 1.1 -0.5 1.96102 1.1 -0.55 1.96102 1.1 
-0.6 1.96102 1.1 -0.65 1.96102 1.1 -0.7 1.96102 1.1 
-0.75 1.96102 1.1 -0.8 1.96102 1.1 -0.85 1.96102 1.1 
-0.9 1.96102 1.1 -0.95 1.96102 1.1 -1 1.96102 1.1 
-1.05 1.96102 1.1 -1.1 1.96102 1.1 -1.15 1.96102 1.1 
-1.2 1.96102 1.1 -1.25 1.96102 1.1 -1.3 1.96102 1.1 
-1.35 1.96102 1.1 -1.4 1.96102 1.1 -1.45 1.96102 1.1 
-1.5 1.96102 1.1 -1.55 1.96102 1.1 -1.6 1.96102 1.1 
-1.65 1.96102 1.1 -1.7 1.96102 1.1 -1.75 1.96102 1.1 
-1.8 1.96102 1.1 -1.85 1.96102 1.1 -1.9 1.96102 1.1 
-1.95 1.96102 1.1 -2 1.96102 1.1 -2.05 1.96102 1.1 
-2.1 1.96102 1.1 -2.15 1.96102 1.1 -2.2 1.96102 1.1 
-2.25 1.96102 1.1 -2.3 1.96102 1.1 -2.35001 1.96102 1.1 
-2.40003 1.96102 1.1 -2.45009 1.96103 1.1 -2.50022 1.96104 1.1 
-2.55051 1.96106 1.1 -2.60106 1.9611 1.1 -2.65201 1.96115 1.1 
-2.70344 1.96123 1.1 -2.75525 1.96132 1.1 2.45319 -1.82527 1.1 
2.45308 -1.82515 1.1 2.45306 -1.77515 1.1 2.45305 -1.72514 1.1 
2.45305 -1.6752 1.1 2.45305 -1.62537 1.1 2.45305 -1.57565 1.1 
2.45304 -1.52612 1.1 2.45304 -1.47677 1.1 2.45306 -1.42751 1.1 
2.45319 -1.37781 1.1 2.49999 -1.38096 1.1 2.45329 -1.32727 1.1 
2.45324 -1.27638 1.1 2.45316 -1.22567 1.1 2.4531 -1.17525 1.1 
2.47659 -1.12507 1.1 2.45307 -1.13344 1.1 2.45305 0.775 1.1 
2.45305 0.725 1.1 2.45305 0.675 1.1 2.45305 0.625 1.1 
2.45305 0.575 1.1 2.45305 0.525 1.1 2.45305 0.475 1.1 
2.45305 0.424999 1.1 2.45305 0.374997 1.1 2.45305 0.324992 1.1 
2.45305 0.274979 1.1 2.45305 0.22495 1.1 2.45306 0.174891 1.1 
2.45306 0.124777 1.1 2.45307 0.0745777 1.1 2.45308 0.0242542 1.1 
2.45309 -0.0262322 1.1 2.45308 -0.0768974 1.1 2.45305 -0.127663 1.1 
2.45295 -0.178125 1.1 2.4529 -0.227862 1.1 2.45294 -0.277152 1.1 
2.45298 -0.326468 1.1 2.45301 -0.375933 1.1 2.45302 -0.425555 1.1 
2.45303 -0.475309 1.1 2.45304 -0.52516 1.1 2.45304 -0.575077 1.1 
[...]
POINT_DATA 5017
SCALARS p float
LOOKUP_TABLE default
-4.37265 -4.36338 -4.36016 -4.36257 -4.3675 -4.3722 -4.37686 -4.38215 -4.38809 
-4.39445 -4.40099 -4.40763 -4.41443 -4.42134 -4.42853 -4.43607 -4.44408 -4.45267 
-4.46189 -4.47173 -4.4822 -4.49327 -4.50496 -4.51724 -4.53013 -4.54362 -4.55774 
-4.57249 -4.58801 -4.60433 -4.62138 -4.63922 -4.65794 -4.67724 -4.69686 -4.71668 
-4.73683 -4.75733 -4.77829 -4.79967 -4.82152 -4.84377 -4.86646 -4.88957 -4.91313 
-4.93709 -4.96148 -4.98627 -5.0115 -5.03712 -5.06315 -5.08954 -5.11631 -5.14341 
-5.17088 -5.19873 -5.22702 -5.25569 -5.28479 -5.31427 -5.34415 -5.37441 -5.40506 
-5.43608 -5.4675 -5.49927 -5.5314 -5.56386 -5.59669 -5.62984 -5.66331 -5.69713 
-5.73126 -5.76568 -5.80029 -5.83509 -5.86997 -5.90501 -5.9401 -5.97531 -6.01054 
-6.04572 -6.08078 -6.11562 -6.15016 -6.18433 -6.21803 -6.25118 -6.28355 -6.31502 
-6.34529 -6.37418 -6.40147 -6.42699 -6.45054 -6.47206 -6.49149 -6.50888 -6.52426 
-6.53774 -6.54929 -6.55895 -6.56643 -6.57156 -6.5742 -6.5749 -6.57403 -6.57256 
-6.57136 -6.57086 -4.3787 -6.57057 -6.57206 -6.57657 -6.58376 -6.595 -6.61127 
-6.63404 -6.66401 -6.6641 -6.70286 -6.75332 -6.81937 -6.90858 -7.03033 -7.2156 
-7.4848 -7.97303 -8.85068 -9.39377 -9.39409 -9.46154 -8.87719 -7.94383 -7.40588 
-7.08582 -6.85845 -6.69454 -6.56691 -6.46453 -6.37941 -6.3067 -6.24338 -6.18697 
-6.13605 -6.08928 -6.04612 -6.00586 -5.96824 -5.93288 -5.89968 -5.86832 -5.83877 
-5.81082 -5.78445 -5.75949 -5.73594 -5.71367 -5.69262 -5.67267 -5.65382 -5.63593 
-5.61898 -5.60288 -5.58768 -5.57342 -5.56042 -5.54926 -5.54041 -5.53307 -5.52483 
-5.5155 -5.5119 -5.51735 -5.52867 -5.53548 -3.64818 -3.62603 -3.69116 -3.72708 
-3.73031 -3.6972 -3.6388 -3.57251 -3.50926 -3.45219 -3.40129 -3.35503 -3.31315 
-3.27604 -3.24446 -3.21884 -3.19951 -3.18659 -3.17981 -3.17888 -3.18366 -3.1935 
-3.20791 -3.22629 -3.24805 -3.27287 -3.30018 -3.32959 -3.36059 -3.3931 -3.42702 
-3.46205 -3.4981 -3.53503 -3.57273 -3.61137 -3.65076 -3.69105 -3.73237 -3.775 
-3.81873 -3.86262 -3.90655 -3.95036 -3.99359 -4.03614 -4.07823 -4.12005 -4.16155 
-4.20274 -4.24356 -4.28402 -4.32406 -4.36371 -4.4029 -4.44164 -4.47986 -4.51764 
-4.55495 -4.59185 -4.62828 -4.66425 -4.69964 -4.73448 -4.7687 -4.80235 -4.83537 
-4.86781 -4.8996 -4.93079 -4.96128 -4.99107 -5.0201 -5.04844 -5.07606 -5.10298 
-5.12913 -5.1545 -5.17905 -5.20285 -5.22588 -5.24817 -5.26968 -5.29041 -5.3103 
-5.32938 -5.34762 -5.36504 -5.38157 -5.39723 -5.41197 -5.42583 -5.43876 -5.45075 
-5.46172 -5.47167 -5.48062 -5.48867 -5.49585 -5.50213 -5.50729 -5.51117 -5.51338 
-5.51469 -5.51541 -5.51534 -5.52812 -5.54826 -5.55152 -3.62167 -4.40749 -4.39729 
-4.39449 -4.3638 -4.3532 -4.3592 -4.36207 -4.36188 -4.36019 -4.35733 -4.35359 
-4.34914 -4.34407 -4.33847 -4.33242 -4.32601 -4.31929 -4.31231 -4.30513 -4.2978 
-4.29039 -4.28298 -4.2756 -4.26831 -4.26118 -4.25433 -4.24778 -4.24158 -4.23573 
-4.23034 -4.2256 -4.22197 -4.21983 -4.21982 -4.22247 -4.22918 -4.24202 -4.26467 
-4.30223 -4.35967 -4.35986 -4.44071 -4.54584 -4.67332 -4.80897 -4.93911 -5.07797 
-5.27206 -5.54747 -5.95571 -6.20691 -6.20679 -4.46713 -4.78089 -4.1466 -4.10636 
-4.03637 -3.9569 -3.87286 -3.79298 -3.73044 -3.68807 -3.6563 -3.63155 -6.6218 
-6.62412 -6.62421 -6.62433 -6.62441 -6.62445 -6.62443 -6.62444 -6.62443 -6.62434 
-6.62435 -6.62437 -6.62434 -6.62433 -6.62435 -6.62433 -6.62435 -6.6244 -6.62448 
-6.62461 -6.6248 -6.62509 -6.62535 -6.62532 -6.60884 -14.8083 -14.8103 -14.8104 
-14.8105 -14.8105 -14.8105 -14.8104 -14.8104 -14.8104 -14.8102 -14.8102 -14.8101 
-14.8102 -14.8103 -14.8104 -14.8104 -14.8105 -14.8106 -14.8107 -14.8108 -14.811 
-14.8113 -14.8114 -14.8116 -14.8114 -4.37614 -6.57106 -5.53509 -4.38954 -3.68485 
-3.70637 -3.74409 -3.70523 -3.73211 -3.77568 -3.84278 -3.92442 -4.00746 -4.0814 
-4.1434 -4.15832 -4.34804 -5.03878 -5.84683 -6.2618 -6.36625 -6.36972 -6.46439 
-6.63332 -6.7469 -6.81895 -6.8951 -6.96761 -7.00892 -7.03142 -7.03266 -7.01426 
-6.95602 -6.88332 -6.78777 -6.71301 -6.71343 -6.66693 -6.65675 -6.60609 -6.59556 
-6.67121 -6.54269 -6.30676 -6.18597 -5.81652 -3.77728 -5.54457 -5.53502 -5.52347 
-5.52591 -5.52406 -5.5201 -5.51545 -5.50994 -5.50369 -5.49659 -5.48877 -5.48013 
-5.47062 -5.46017 -5.44874 -5.43634 -5.42304 -5.40882 -5.39375 -5.3778 -5.36103 
-5.3434 -5.32497 -5.3057 -5.28567 -5.26482 -5.2432 -5.22079 -5.19767 -5.17378 
-5.14916 -5.12371 -5.09749 -5.07049 -5.04281 -5.0144 -4.98531 -4.95547 -4.92493 
-4.89369 -4.86183 -4.82931 -4.79622 -4.7625 -4.72821 -4.69328 -4.65777 -4.62168 
-4.58512 -4.54807 -4.51062 -4.4727 -4.43436 -4.39551 -4.3562 -4.31642 -4.27629 
-4.23573 -4.19485 -4.1536 -4.11206 -4.0702 -4.02808 -3.98553 -3.94232 -3.89856 
-3.85469 -3.81101 -3.76752 -3.72508 -3.68397 -3.64394 -3.60486 -3.56653 -3.52916 
-3.49263 -3.45702 -3.42256 -3.38931 -3.35764 -3.32775 -3.2997 -3.27409 -3.25137 
-3.23219 -3.21677 -3.20573 -3.19965 -3.19892 -3.20422 -3.21561 -3.23319 -3.25717 
-3.28733 -3.32311 -3.36399 -3.40862 -3.45684 -3.50873 -3.56607 -3.62856 -3.69329 
-3.7505 -3.78177 -6.70478 -6.7049 -6.75497 -6.82016 -6.90762 -7.02586 -7.20236 
-7.44956 -7.88642 -8.56936 -10.0626 -10.7351 -11.4822 -12.0392 -12.4455 -12.7178 
-13.0441 -12.8584 -5.90076 -5.93402 -5.96943 -6.00703 -6.04728 -6.09037 -6.13705 
-6.18778 -6.24394 -6.3068 -6.37884 -6.463 -6.56388 -6.68901 -6.84806 -7.06592 
-7.36225 -7.84855 -8.58786 -10.0508 -11.3984 -11.9147 -12.2932 -12.6135 -12.8351 
-12.9926 -13.1237 -13.195 -13.2299 -13.2425 -13.236 -13.2166 -13.2047 -13.1932 
-13.1875 -13.1608 -13.1066 -13.0116 -12.8866 -6.70478 -6.66611 -6.63601 -6.61285 
-6.59619 -6.58463 -6.57725 -6.57262 -5.86931 -5.83968 -5.81166 -5.78526 -5.76027 
-5.73676 -5.71455 -5.69364 -5.67391 -5.65539 -5.63801 -5.62178 -5.60667 -5.5928 
-5.5802 -5.56913 -5.55991 -5.55281 -5.54706 -5.54079 -5.53392 -5.53212 -5.53264 
-8.97749 -8.12683 -5.53006 -5.53499 -5.52883 -5.52574 -5.52714 -5.52646 -5.52854 
-5.5331 -5.53544 -5.52827 -5.52714 -5.52574 -5.52854 -5.52854 -5.52886 -4.37054 
-6.57244 -6.57412 -6.57512 -6.57457 -6.57205 -6.56702 -6.55966 -6.55013 -6.5387 
-6.52528 -6.50993 -6.49252 -6.47306 -6.45149 -6.42788 -6.40231 -6.37499 -6.34605 
-6.31576 -6.28424 -6.25181 -6.21859 -6.18481 -6.15059 -6.11601 -6.08112 -6.04602 
-6.01079 -5.97549 -5.94019 -5.90501 -5.86986 -5.83487 -5.79998 -5.76533 -5.7309 
-5.69678 -5.66296 -5.62948 -5.59633 -5.56352 -5.53105 -5.49892 -5.46716 -5.43575 
-5.40473 -5.3741 -5.34386 -5.31398 -5.28452 -5.25543 -5.22677 -5.19849 -5.17064 
-5.14317 -5.11609 -5.08933 -5.06297 -5.03696 -5.01135 -4.98612 -4.96134 -4.93697 
-4.91302 -4.88947 -4.86638 -4.84371 -4.82149 -4.79967 -4.77831 -4.75736 -4.73686 
-4.71671 -4.69691 -4.67731 -4.65804 -4.63932 -4.62145 -4.60441 -4.58815 -4.57265 
-4.55792 -4.54381 -4.53034 -4.51745 -4.50517 -4.49349 -4.48242 -4.47195 -4.46212 
-4.45292 -4.44436 -4.43642 -4.429 -4.42198 -4.41533 -4.40892 -4.40288 -4.39724 
-4.39214 -4.38776 -4.38416 -4.38108 -4.37761 -4.37328 -4.37048 -6.57419 -5.52827 
-5.53163 -5.53545 -5.53895 -5.54606 -5.53954 -5.55056 -5.54333 -5.54623 -5.55278 
-5.54333 -5.55056 -5.52619 -5.52562 -5.52887 -5.53093 -5.52228 -5.52619 -5.52228 
-5.52228 -5.52097 -5.56013 -5.5545 -5.56302 -5.56772 -5.55904 -5.56905 -5.55904 
-5.56773 -5.51704 -5.51587 -5.51017 -5.5118 -5.52412 -5.51938 -5.51704 -5.5118 
-5.5118 -5.51264 -5.5049 -5.49818 -5.49818 -5.50589 -5.54051 -5.55602 -5.50387 
-5.49664 -5.5049 -5.49818 -5.48962 -5.48878 -5.49726 -5.48861 -5.48142 -5.48962 
-5.48142 -5.4801 -5.48142 -5.47117 -5.47055 -5.47816 -5.46766 -5.46106 -5.46106 
-5.47117 -5.46106 -5.46002 -5.5846 -5.57685 -5.59025 -5.57847 -5.57369 -5.57847 
-5.57967 -5.59025 -5.59199 -4.49511 -4.53887 -4.55586 -4.46332 -4.43466 -4.56712 
-4.5355 -4.45915 -4.46702 -4.44339 -4.50753 -4.54066 -5.45549 -5.43694 -5.43694 
-5.44897 -5.44323 -5.44897 -5.44854 -5.43605 -5.43694 -5.42305 -5.42272 -5.59865 
-5.61301 -5.61916 -5.60433 -5.60433 -5.6058 -5.61916 -5.62107 -5.63751 -5.63617 
-5.63007 -5.65357 -5.63617 -5.64755 -5.6552 -5.65357 -5.67397 -5.69278 -5.66705 
-5.67297 -5.68706 -5.67297 -5.69278 -5.69398 -5.71507 -5.71441 -5.70891 -5.73135 
-5.73676 -5.71441 -5.73752 -5.73676 -5.76116 -5.75572 -5.78597 -5.78597 -5.76083 
-5.78081 -5.76083 -5.78597 -5.78637 -5.81289 -5.81279 -5.80793 -5.84105 -5.78597 
-5.81279 -5.84105 -5.83594 -5.84116 -5.84105 -5.87094 -5.86611 -5.84105 -5.87105 
-5.90275 -5.90275 -5.89734 -5.87105 -5.90275 -5.90267 -5.93607 -5.93635 -5.93089 
-5.97182 -5.97182 -5.90275 -5.93635 -5.96576 -5.97166 -5.97182 -5.88645 -5.82566 
-5.516 -5.49787 -5.5303 -5.54491 -5.52966 -5.54875 -5.56498 -5.63905 -5.60482 
-5.52863 -5.51067 -5.50515 -5.48836 -5.47627 -5.47832 -5.46272 -5.37818 -5.3999 
-5.38428 -5.39365 -5.40927 -5.41542 -5.40927 -5.37818 -5.39365 -5.39335 -5.40927 
-5.40843 -5.42305 -5.42937 -5.45131 -5.4231 -6.00316 -6.00953 -6.04951 -6.04951 
-5.97182 -6.04231 -6.00953 -6.00925 -6.04951 -6.0495 -6.09243 -6.09243 -6.08448 
-6.13844 -6.04951 -6.09243 -6.13844 -6.12904 -6.13892 -6.13844 -6.18939 -6.17752 
-6.24348 -6.24348 -6.13844 -6.18878 -6.22935 -6.18878 -6.24348 -6.24505 -6.30739 
-6.30532 -6.28652 -6.37312 -6.37311 -6.24348 -6.34842 -6.30532 -6.37313 -6.37787 
-5.77102 -5.67821 -5.72204 -5.75461 -5.70659 -5.36713 -5.34986 -5.34377 -5.36089 
-5.34377 -5.36059 -5.37735 -5.36089 -5.37818 -5.34292 -5.34377 -5.59213 -5.57471 
-5.62543 -5.60671 -5.58354 -5.55313 -5.6437 -5.66366 -5.68547 -5.73223 -5.33107 
-5.30609 -5.30609 -5.31216 -5.32482 -5.30609 -5.30521 -5.32482 -5.32451 -5.28552 
-5.28521 -5.29178 -5.27127 -5.26522 -5.28552 -5.26522 -5.26432 -5.26522 -5.44838 
-5.43393 -5.40221 -5.39173 -5.24935 -5.22128 -5.22729 -5.22128 -5.24309 -5.22128 
-5.2203 -5.24309 -5.24274 -5.19763 -5.19722 -5.20384 -5.17435 -5.19763 -5.17435 
-5.17435 -5.18024 -5.17331 -5.17435 -5.14918 -5.14873 -5.12327 -5.12435 -5.14918 
-5.12435 -5.17435 -5.12435 -5.15526 -5.12435 -5.13012 -5.07123 -5.10359 -5.09759 
-5.07123 -5.07123 -5.0769 -5.12435 -5.09709 -5.07008 -5.09759 -5.07123 -5.04299 
-5.04245 -4.95618 -4.95618 -4.98546 -5.01516 -5.01516 -4.96138 -4.95618 -5.02062 
-4.99109 -5.01516 -4.98546 -4.98496 -5.01516 -5.01403 -5.35721 -5.36761 -5.38052 
-5.41573 -5.31955 -5.27878 -5.23496 -5.18806 -5.24589 -5.19936 -5.49922 -5.52794 
-5.52542 -5.55642 -5.61906 -5.59008 -5.65948 -5.62881 -6.46034 -6.41827 -6.54403 
-6.49509 -6.37314 -6.4541 -6.54398 -6.54401 -6.5572 -6.67758 -6.66027 -6.78766 
-6.5441 -6.78776 -6.58497 -6.788 -6.68529 -6.82435 -7.02296 -6.80589 -7.16546 
-6.78851 -7.16692 -6.97324 -6.94162 -7.16542 -7.2714 -7.65769 -7.49766 -7.79483 
-7.10294 -7.28441 -7.79693 -7.16949 -7.80061 -5.9539 -5.80817 -5.78429 -5.70483 
-5.75522 -5.6725 -5.72108 -5.81086 -5.77457 -5.87196 -5.83306 -5.84198 -5.9056 
-5.86768 -5.9335 -5.59337 -5.55677 -5.55342 -5.51949 -5.49099 -5.46736 -5.43292 
-5.39637 -5.45384 -5.41492 -5.47891 -5.43632 -5.50939 -5.46251 -5.28944 -5.33004 
-5.34256 -5.30169 -5.25807 -5.2117 -5.59264 -5.54552 -5.63504 -5.63683 -5.68158 
-5.73282 -5.78869 -5.68563 -5.73884 -5.63307 -5.58692 -5.49448 -5.53223 -5.57522 
-7.71205 -8.78183 -8.78849 -7.50896 -8.40593 -8.79231 -7.80853 -9.95051 -10.5532 
-5.13796 -5.08459 -5.14971 -5.09669 -4.89441 -4.89931 -4.92506 -4.89441 -4.89441 
-4.95618 -4.93045 -4.89441 -4.89333 -4.92506 -4.92458 -4.95509 -4.95618 -5.07123 
-5.04299 -5.04885 -5.01516 -5.02794 -4.96805 -5.04013 -4.97994 -4.8615 -4.82898 
-4.86198 -4.86706 -4.83457 -4.89441 -4.86198 -4.83002 -4.83002 -4.83002 -4.83002 
-4.79636 -4.79592 -4.73262 -4.76731 -4.76311 -4.76311 -4.69375 -4.69375 -4.69766 
-4.72824 -4.76311 -4.69375 -4.83002 -4.79636 -4.76311 -4.80107 -4.76311 -4.76217 
-5.16238 -5.31657 -5.35767 -5.33369 -5.37489 -5.39335 -5.41508 -5.35088 -5.36933 
-5.30822 -5.29054 -5.26345 -5.28136 -5.32553 -5.24446 -5.22628 -5.27286 -5.6835 
-5.89663 -5.9387 -5.96526 -6.01111 -5.97537 -6.00598 -6.11218 -6.0287 -5.62267 
-5.73794 -5.67404 -5.79613 -5.729 -5.7963 -5.85779 -5.84916 -5.9141 -6.08581 
-6.0515 -6.08909 -6.13443 -6.17426 -6.20656 -6.31479 -7.00973 -6.77867 -6.44107 
-6.59249 -6.6604 -6.51203 -6.27314 -6.22498 -6.38465 -6.32404 -6.43236 -6.03872 
-6.17266 -6.11656 -6.0559 -5.9832 -5.9229 -5.991 -5.92168 -5.85761 -5.47452 
-5.44186 -5.39113 -5.4177 -5.34432 -5.36582 -5.29959 -5.31891 -5.39148 -5.34014 
-5.42248 -5.36458 -5.45008 -5.48834 -5.51311 -5.55682 -5.78708 -5.53166 -5.60477 
-5.57924 -5.65642 -5.71121 -5.63039 -5.84755 -5.76839 -6.19825 -6.13138 -6.26192 
-6.28321 -6.3568 -6.55067 -6.45704 -6.83329 -6.67865 -5.98733 -5.90937 -7.29308 
-7.5826 -8.07463 -9.27497 -9.24666 -9.25229 -9.25201 -7.90535 -8.79853 -10.8838 
-9.25201 -11.0838 -8.22427 -9.53907 -9.54066 -9.25403 -8.34266 -9.54927 -9.54074 
-11.2654 -11.4155 -8.6084 -9.54129 -9.88083 -8.49334 -9.89403 -9.88079 -9.88036 
-11.5653 -7.8303 -8.03225 -11.6623 -10.1175 -8.72176 -10.1175 -10.2125 -9.88094 
-8.80854 -11.728 -10.1175 -11.7539 -8.85311 -8.9102 -10.3739 -10.2157 -10.2157 
-10.1175 -11.7587 -10.3739 -10.2157 -8.17602 -8.25235 -8.92807 -8.26511 -11.737 
-11.7454 -10.4174 -10.2244 -8.91866 -10.2157 -10.4174 -10.2244 -10.2244 -10.3828 
-11.7193 -10.1484 -8.90266 -8.86724 -10.1484 -10.2244 -10.3828 -11.7034 -10.1484 
-8.22059 -6.56183 -6.37069 -6.45953 -6.2087 -6.28685 -6.06117 -6.13236 -6.05345 
-4.62578 -4.62207 -4.62207 -4.62207 -4.66186 -4.65771 -4.69375 -4.62207 -4.62131 
-4.65771 -4.65744 -4.69293 -4.7279 -4.72824 -4.69375 -5.10984 -5.05384 -4.99416 
-4.83943 -4.90511 -4.8496 -4.91628 -4.93078 -4.86395 -4.79403 -4.78039 -4.77134 
-4.7011 -4.70905 -4.58477 -4.54767 -4.58499 -4.58902 -4.54838 -4.55197 -4.58499 
-4.54838 -4.62207 -4.54838 -4.54839 -4.51041 -4.51025 -4.51436 -4.47292 -4.51041 
-4.47648 -4.47292 -4.54838 -4.47292 -4.47292 -4.47226 -4.43407 -4.43396 -4.3957 
-4.39937 -4.43805 -4.3957 -4.47292 -4.3957 -4.43407 -4.3957 -4.39506 -4.47997 
-4.55521 -4.62897 -4.63595 -4.64628 -4.72138 -4.56142 -4.56913 -4.49071 -4.48569 
-5.19512 -5.17686 -5.12455 -5.14273 -5.06907 -5.08737 -5.01004 -5.02856 -5.10701 
-5.0479 -5.16256 -5.2149 -5.18207 -5.23383 -5.25285 -5.20185 -5.27246 -5.22242 
-5.29277 -5.24369 -5.31431 -5.26559 -5.19024 -5.16794 -5.12659 -4.80994 -4.73638 
-4.88031 -4.94713 -4.89832 -4.96559 -4.98463 -4.82751 -5.06733 -5.14674 -5.08771 
-5.10926 -4.40884 -4.40317 -4.41191 -4.49856 -4.41747 -5.132 -5.15591 -5.21341 
-4.57982 -4.65957 -4.67656 -4.75374 -4.84623 -4.77264 -5.00398 -4.91712 -4.93653 
-4.86551 -4.79157 -4.9565 -5.02443 -4.97705 -5.04593 -5.06845 -4.99874 -5.09221 
-5.02197 -4.9461 -4.92339 -4.59592 -4.51341 -4.53311 -4.61556 -4.55538 -4.63614 
-4.69579 -4.715 -4.43098 -4.45026 -4.47366 -4.6574 -4.73318 -4.80905 -4.88423 
-4.90295 -4.82664 -4.84664 -4.86928 -4.79812 -4.77421 -6.36462 -6.20344 -6.27319 
-6.11887 -6.03226 -5.97134 -6.18244 -6.09101 -5.45903 -5.39337 -5.50069 -5.42707 
-5.54677 -5.46571 -5.33787 -5.28808 -5.3644 -5.31149 -5.26069 -5.23699 -5.18066 
-5.39474 -5.33658 -5.50877 -5.42931 -5.59637 -5.68426 -7.02976 -6.81292 -7.22181 
-6.94276 -6.77411 -6.66931 -6.63188 -6.54771 -7.38315 -7.05924 -7.16079 -7.51873 
-7.62539 -7.24244 -7.29616 -7.68954 -7.01571 -6.95087 -6.70843 -6.86927 -6.77486 
-7.70721 -7.31705 -6.82872 -6.8671 -7.05967 -7.07991 -6.88784 -11.5856 -11.6588 
-10.2565 -8.80068 -8.71152 -10.1484 -9.95358 -9.95379 -9.95386 -9.96697 -11.453 
-8.6077 -9.61391 -8.46943 -9.95381 -11.3129 -9.61391 -11.275 -11.1619 -9.6075 
-9.6139 -8.35184 -9.32407 -9.32375 -9.32279 -8.19759 -11.0081 -7.94889 -8.11539 
-10.0653 -10.6962 -9.36399 -7.83684 -8.8977 -8.03313 -8.90089 -8.8997 -9.32385 
-9.02818 -8.50144 -7.89014 -7.64801 -7.43227 -7.89078 -8.89896 -7.89175 -8.16126 
-7.68102 -7.61141 -7.30488 -7.0763 -6.89037 -7.26273 -7.50612 -7.19633 -7.37227 
-7.72612 -7.45443 -7.1963 -7.37891 -7.72696 -7.59823 -7.30275 -7.89034 -7.30239 
-7.13083 -7.29216 -7.30251 -7.17361 -7.13948 -7.03631 -6.92745 -6.99357 -6.99351 
-6.99349 -7.30238 -7.01397 -6.90523 -6.897 -6.79018 -6.81581 -6.99347 -6.81583 
-6.86365 -6.81581 -6.82046 -6.86423 -7.00436 -7.11139 -7.013 -7.20943 -7.05112 
-7.0079 -6.87631 -6.84881 -7.04632 -6.91326 -6.91274 -6.82385 -6.81062 -6.94956 
-6.76467 -6.88061 -6.81012 -6.7157 -6.74469 -6.6672 -6.74589 -6.684 -6.7082 
-6.75791 -6.75631 -6.75617 -6.70746 -6.7463 -6.8158 -6.75617 -6.69648 -6.70808 
-6.75617 -6.70746 -6.67004 -6.67006 -6.66679 -6.63344 -6.67006 -6.63997 -6.63977 
-6.63998 -6.61589 -6.61598 -6.59689 -6.61598 -6.59897 -6.6162 -6.59824 -6.59897 
-6.58639 -6.58711 -6.57995 -6.58047 -6.58711 -6.58001 -6.5787 -6.58001 -6.57579 
-6.57631 -6.57675 -6.57995 -6.58047 -6.57397 -6.51215 -6.44045 -6.34027 -6.40315 
-6.29944 -6.24302 -6.19804 -6.14657 -6.57735 -6.6341 -6.46023 -6.51013 -6.35057 
-6.39545 -6.24459 -6.28553 -6.55161 -6.43324 -6.58336 -6.46306 -6.68062 -6.71503 
-6.73586 -6.74262 -6.60432 -6.61406 -6.48405 -6.4958 -6.36915 -6.38195 -6.34845 
-6.32034 -5.82687 -5.73967 -5.8854 -5.79526 -5.36413 -5.30935 -5.28469 -5.70083 
-5.64823 -5.5552 -5.60346 -5.75258 -5.65178 -6.61852 -6.57028 -6.62734 -6.6774 
-6.80682 -6.72171 -6.75885 -5.94271 -5.99769 -5.84963 -5.90162 -5.80211 -5.69858 
-5.11734 -5.04692 -5.20568 -5.14329 -5.23056 -5.25526 -5.28004 -5.33512 -5.30523 
-5.36231 -5.39455 -5.46779 -5.50911 -5.42762 -5.46256 -5.39078 -5.55172 -5.49827 
-5.59407 -4.58047 -4.50143 -4.32068 -4.31675 -4.35591 -4.31675 -4.31675 -4.36013 
-4.3957 -4.31675 -4.316 -4.35591 -4.35581 -4.27615 -4.27596 -4.23631 -4.27615 
-4.31675 -4.23631 -4.23631 -4.24046 -4.28067 -4.23541 -4.23631 -4.19493 -4.19464 
-4.32478 -4.24479 -4.15861 -4.16307 -4.15439 -4.19493 -4.19957 -4.23631 -4.15439 
-4.15439 -4.15439 -4.1534 -4.07498 -4.07961 -4.07091 -4.11222 -4.07091 -4.11677 
-4.15439 -4.07091 -4.07092 -4.07001 -4.11222 -4.11192 -4.75242 -4.68112 -4.60971 
-4.53632 -4.89443 -4.97098 -4.92138 -4.99739 -5.0731 -5.16932 -5.09987 -5.19513 
-5.12687 -5.05285 -5.02479 -6.09704 -6.04939 -5.9503 -5.99499 -5.89071 -5.8484 
-5.78286 -5.7426 -6.13998 -6.17764 -6.03503 -6.06979 -5.9283 -5.81854 -5.96047 
-5.84884 -6.20969 -6.09909 -6.23588 -6.12298 -5.98706 -6.00846 -5.87334 -5.89257 
-6.02471 -5.90707 -6.26852 -6.25568 -6.14119 -6.15319 -6.03542 -6.73617 -6.71868 
-6.61301 -6.60239 -6.49848 -6.49255 -6.38678 -6.38373 -6.47909 -6.37334 -6.69255 
-6.584 -6.66023 -6.56017 -6.46009 -6.35711 -6.5329 -6.6247 -6.50216 -6.58729 
-6.54659 -6.62316 -6.6799 -6.65397 -6.61968 -6.60322 -6.57481 -6.58909 -6.57175 
-6.5733 -6.57735 -6.59285 -6.43711 -6.33625 -6.40972 -4.73431 -4.7074 -4.64185 
-4.67305 -4.57514 -4.61015 -4.82417 -4.76206 -4.79066 -4.85195 -4.94958 -4.8809 
-4.9786 -4.91061 -3.9898 -3.98584 -4.02794 -4.03243 -3.98584 -3.98584 -4.07091 
-3.98584 -3.98516 -4.02794 -4.02779 -3.94195 -3.94191 -3.94699 -3.98584 -3.89897 
-3.94195 -3.89897 -3.90389 -3.89897 -3.89812 -3.89897 -3.85459 -3.85433 -3.77658 
-3.7276 -3.81211 -3.76827 -3.81211 -3.81211 -3.81813 -3.73398 -3.7276 -3.76827 
-3.76758 -3.81211 -3.81078 -3.89897 -3.85459 -3.81211 -3.86126 -3.90919 -3.8231 
-3.69427 -3.64737 -3.68577 -3.65293 -3.64737 -3.68461 -3.7255 -3.68577 -3.7276 
-3.99476 -4.08719 -4.00243 -4.25152 -4.33085 -4.25388 -4.33306 -4.21834 -4.11298 
-4.19133 -4.09354 -4.2343 -4.14349 -4.16249 -4.18148 -4.17409 -4.15145 -4.1148 
-4.21443 -3.57046 -3.60737 -3.57046 -3.61462 -3.57431 -3.60586 -3.64484 -3.60737 
-3.64737 -4.1704 -4.17352 -4.09129 -4.37166 -4.32487 -4.298 -4.27359 -4.3877 
-4.28854 -4.29181 -4.26602 -4.36076 -4.37153 -4.3986 -4.33697 -3.91666 -3.92235 
-4.0075 -3.83535 -3.82984 -3.73719 -3.74171 -4.27135 -4.18851 -4.1687 -4.19696 
-4.19461 -4.2416 -4.17451 -4.22292 -3.65295 -3.57035 -3.49702 -3.48878 -3.49583 
-3.53691 -3.53158 -3.49583 -3.49583 -3.56773 -3.53015 -3.57046 -3.53158 -3.49583 
-3.49356 -3.42439 -3.46084 -3.45863 -3.42168 -3.42439 -3.45863 -3.45771 -3.65328 
-3.74559 -3.65302 -3.56602 -3.55982 -3.48016 -3.39699 -3.40955 -3.42308 -3.42439 
-3.38954 -3.38952 -3.38748 -3.34992 -3.38954 -3.35722 -3.35722 -3.35722 -3.35757 
-4.1205 -4.14367 -4.08724 -4.07382 -4.09518 -4.06885 -4.09476 -4.17051 -4.25792 