# vtk DataFile Version 5.1
vtk output
ASCII
DATASET POLYDATA
POINTS 4288 float
-2.95593 -2.25 1.7 -2.91015 -2.25 1.7 -2.86164 -2.25 1.7 
-2.81054 -2.25 1.7 -2.75794 -2.25 1.7 -2.70512 -2.25 1.7 
-2.65289 -2.25 1.7 -2.60145 -2.25 1.7 -2.55065 -2.25 1.7 
-2.50026 -2.25 1.7 -2.45009 -2.25 1.7 -2.40003 -2.25 1.7 
-2.35001 -2.25 1.7 -2.3 -2.25 1.7 -2.25 -2.25 1.7 
-2.2 -2.25 1.7 -2.15 -2.25 1.7 -2.1 -2.25 1.7 
-2.05 -2.25 1.7 -2 -2.25 1.7 -1.95 -2.25 1.7 
-1.9 -2.25 1.7 -1.85 -2.25 1.7 -1.8 -2.25 1.7 
-1.75 -2.25 1.7 -1.7 -2.25 1.7 -1.65 -2.25 1.7 
-1.6 -2.25 1.7 -1.55 -2.25 1.7 -1.5 -2.25 1.7 
-1.45 -2.25 1.7 -1.4 -2.25 1.7 -1.35 -2.25 1.7 
-1.3 -2.25 1.7 -1.25 -2.25 1.7 -1.2 -2.25 1.7 
-1.15 -2.25 1.7 -1.1 -2.25 1.7 -1.05 -2.25 1.7 
-1 -2.25 1.7 -0.95 -2.25 1.7 -0.9 -2.25 1.7 
-0.85 -2.25 1.7 -0.8 -2.25 1.7 -0.75 -2.25 1.7 
-0.7 -2.25 1.7 -0.65 -2.25 1.7 -0.6 -2.25 1.7 
-0.55 -2.25 1.7 -0.5 -2.25 1.7 -0.45 -2.25 1.7 
-0.4 -2.25 1.7 -0.35 -2.25 1.7 -0.3 -2.25 1.7 
-0.25 -2.25 1.7 -0.2 -2.25 1.7 -0.15 -2.25 1.7 
-0.1 -2.25 1.7 -0.0499999 -2.25 1.7 1.59066e-07 -2.25 1.7 
0.0499998 -2.25 1.7 0.0999998 -2.25 1.7 0.15 -2.25 1.7 
0.2 -2.25 1.7 0.25 -2.25 1.7 0.3 -2.25 1.7 
0.35 -2.25 1.7 0.4 -2.25 1.7 0.45 -2.25 1.7 
0.5 -2.25 1.7 0.55 -2.25 1.7 0.6 -2.25 1.7 
0.65 -2.25 1.7 0.7 -2.25 1.7 0.75 -2.25 1.7 
0.8 -2.25 1.7 0.85 -2.25 1.7 0.9 -2.25 1.7 
0.95 -2.25 1.7 1 -2.25 1.7 1.05 -2.25 1.7 
1.1 -2.25 1.7 1.15 -2.25 1.7 1.2 -2.25 1.7 
1.25 -2.25 1.7 1.3 -2.25 1.7 1.35 -2.25 1.7 
1.4 -2.25 1.7 1.45 -2.25 1.7 1.5 -2.25 1.7 
1.55 -2.25 1.7 1.6 -2.25 1.7 1.65 -2.25 1.7 
1.7 -2.25 1.7 1.75 -2.25 1.7 1.8 -2.25 1.7 
1.85001 -2.25 1.7 1.90003 -2.25 1.7 1.95009 -2.25 1.7 
2.00026 -2.25 1.7 2.05065 -2.25 1.7 2.10145 -2.25 1.7 
2.15289 -2.25 1.7 2.20512 -2.25 1.7 2.25794 -2.25 1.7 
2.31054 -2.25 1.7 2.36164 -2.25 1.7 2.41015 -2.25 1.7 
2.45593 -2.25 1.7 -3 -2.25 1.7 2.5 -2.25 1.7 
2.5 -0.129506 1.7 2.5 -0.078186 1.7 2.5 -0.0271001 1.7 
2.5 0.023714 1.7 2.5 0.0742716 1.7 2.5 0.12462 1.7 
2.5 0.174819 1.7 2.5 0.274731 1.7 2.5 0.274969 1.7 
2.5 0.224922 1.7 2.5 0.324989 1.7 2.5 0.374997 1.7 
2.5 0.424999 1.7 2.5 0.475 1.7 2.5 0.525 1.7 
2.5 0.575 1.7 2.5 0.625 1.7 2.5 0.675 1.7 
2.5 0.725 1.7 2.5 0.775 1.7 2.5 0.825 1.7 
2.5 0.875 1.7 2.5 0.925 1.7 2.5 0.975 1.7 
2.5 1.025 1.7 2.5 1.075 1.7 2.5 1.125 1.7 
2.5 1.175 1.7 2.5 1.225 1.7 2.5 1.275 1.7 
2.5 1.325 1.7 2.5 1.375 1.7 2.5 1.42502 1.7 
2.5 1.47505 1.7 2.5 -2.21035 1.7 2.5 -2.16898 1.7 
2.5 -2.12474 1.7 2.5 -2.07746 1.7 2.5 -2.02793 1.7 
2.5 -1.97728 1.7 2.5 -1.92641 1.7 2.5 -1.87575 1.7 
2.5 -1.82537 1.7 2.5 -1.77522 1.7 2.5 -1.72524 1.7 
2.5 -1.67541 1.7 2.5 -1.62576 1.7 2.5 -1.57633 1.7 
2.5 -1.52715 1.7 2.5 -1.47824 1.7 2.5 -1.42954 1.7 
2.5 -1.38096 1.7 2.5 -0.18096 1.7 2.5 1.52514 1.7 
2.5 1.57533 1.7 2.5 1.62573 1.7 2.5 1.67641 1.7 
2.5 1.72728 1.7 2.5 1.77793 1.7 2.5 1.82746 1.7 
2.5 1.87474 1.7 2.5 1.91898 1.7 2.5 1.96035 1.7 
2.5 2 1.7 -0.2 2 1.7 -0.25 2 1.7 
-0.15 2 1.7 -0.1 2 1.7 -0.0499997 2 1.7 
5.06679e-07 2 1.7 0.0500005 2 1.7 0.1 2 1.7 
0.15 2 1.7 0.2 2 1.7 0.25 2 1.7 
0.3 2 1.7 0.35 2 1.7 0.4 2 1.7 
0.45 2 1.7 0.5 2 1.7 0.55 2 1.7 
0.6 2 1.7 0.65 2 1.7 0.7 2 1.7 
0.75 2 1.7 0.8 2 1.7 0.85 2 1.7 
0.9 2 1.7 0.95 2 1.7 1 2 1.7 
1.05 2 1.7 1.1 2 1.7 1.15 2 1.7 
1.2 2 1.7 1.25 2 1.7 1.3 2 1.7 
1.35 2 1.7 1.4 2 1.7 1.45 2 1.7 
1.5 2 1.7 1.55 2 1.7 1.6 2 1.7 
1.65 2 1.7 1.7 2 1.7 1.75 2 1.7 
1.8 2 1.7 1.85001 2 1.7 1.90003 2 1.7 
1.95009 2 1.7 2.00026 2 1.7 2.05065 2 1.7 
2.10145 2 1.7 2.15289 2 1.7 2.20512 2 1.7 
2.25794 2 1.7 2.31054 2 1.7 2.36164 2 1.7 
2.41015 2 1.7 2.45593 2 1.7 -2.91015 2 1.7 
-2.95593 2 1.7 -2.86164 2 1.7 -2.81054 2 1.7 
-2.75794 2 1.7 -2.70512 2 1.7 -2.65289 2 1.7 
-2.60145 2 1.7 -2.55065 2 1.7 -2.50026 2 1.7 
-2.45009 2 1.7 -2.40003 2 1.7 -2.35001 2 1.7 
-2.3 2 1.7 -2.25 2 1.7 -2.2 2 1.7 
-2.15 2 1.7 -2.1 2 1.7 -2.05 2 1.7 
-2 2 1.7 -1.95 2 1.7 -1.9 2 1.7 
-1.85 2 1.7 -1.8 2 1.7 -1.75 2 1.7 
-1.7 2 1.7 -1.65 2 1.7 -1.6 2 1.7 
-1.55 2 1.7 -1.5 2 1.7 -1.45 2 1.7 
-1.4 2 1.7 -1.35 2 1.7 -1.3 2 1.7 
-1.25 2 1.7 -1.2 2 1.7 -1.15 2 1.7 
-1.1 2 1.7 -1.05 2 1.7 -1 2 1.7 
-0.95 2 1.7 -0.9 2 1.7 -0.85 2 1.7 
-0.8 2 1.7 -0.75 2 1.7 -0.7 2 1.7 
-0.65 2 1.7 -0.6 2 1.7 -0.55 2 1.7 
-0.5 2 1.7 -0.45 2 1.7 -0.4 2 1.7 
-0.35 2 1.7 -0.3 2 1.7 -3 2 1.7 
-3 -2.16898 1.7 -3 -2.21035 1.7 -3 -2.12474 1.7 
-3 -2.07746 1.7 -3 -2.02793 1.7 -3 -1.97728 1.7 
-3 -1.92641 1.7 -3 -1.87573 1.7 -3 -1.82533 1.7 
-3 -1.77514 1.7 -3 -1.72505 1.7 -3 -1.67502 1.7 
-3 -1.625 1.7 -3 -1.575 1.7 -3 -1.525 1.7 
-3 -1.475 1.7 -3 -1.425 1.7 -3 -1.375 1.7 
-3 -1.325 1.7 -3 -1.275 1.7 -3 -1.225 1.7 
-3 -1.175 1.7 -3 -1.125 1.7 -3 -1.075 1.7 
-3 -1.025 1.7 -3 -0.975 1.7 -3 -0.925 1.7 
-3 -0.875 1.7 -3 -0.825 1.7 -3 -0.775 1.7 
-3 -0.725 1.7 -3 -0.675 1.7 -3 -0.625 1.7 
-3 -0.575 1.7 -3 -0.525 1.7 -3 -0.475 1.7 
-3 -0.425 1.7 -3 -0.375002 1.7 -3 -0.32501 1.7 
-3 -0.275032 1.7 -3 -0.225091 1.7 -3 -0.17523 1.7 
-3 -0.125526 1.7 -3 -0.0760933 1.7 -3 -0.0270776 1.7 
-3 0.0213743 1.7 -3 0.0691608 1.7 -3 0.116277 1.7 
-3 0.162844 1.7 -3 0.2091 1.7 -3 1.46301 1.7 
-3 1.4091 1.7 -3 1.51661 1.7 -3 1.56971 1.7 
-3 1.62228 1.7 -3 1.67445 1.7 -3 1.72626 1.7 
-3 1.77744 1.7 -3 1.87465 1.7 -3 1.87442 1.7 
-3 1.82725 1.7 -3 1.91895 1.7 -3 1.96034 1.7 
-3 0.262963 1.7 -3 0.31647 1.7 -3 0.369367 1.7 
-3 0.421547 1.7 -3 0.473042 1.7 -3 0.523978 1.7 
-3 0.574511 1.7 -3 0.624786 1.7 -3 0.674916 1.7 
-3 0.72497 1.7 -3 0.77499 1.7 -3 0.824995 1.7 
-3 0.874989 1.7 -3 0.924966 1.7 -3 0.974906 1.7 
-3 0.975143 1.7 -3 1.02476 1.7 -3 1.07446 1.7 
-3 1.12389 1.7 -3 1.17289 1.7 -3 1.22133 1.7 
-3 1.26911 1.7 -3 1.31623 1.7 -3 1.36282 1.7 
2.5 -1.32951 1.7 2.5 -1.2782 1.7 2.5 -1.22711 1.7 
2.5 -1.17629 1.7 2.5 -1.12573 1.7 2.5 -1.07538 1.7 
2.5 -1.02518 1.7 2.5 -0.975077 1.7 2.5 -0.92503 1.7 
2.5 -0.87501 1.7 2.5 -0.825003 1.7 2.5 -0.775002 1.7 
2.5 -0.725004 1.7 2.5 -0.675012 1.7 2.5 -0.625034 1.7 
2.5 -0.624796 1.7 2.5 -0.575086 1.7 2.5 -0.525198 1.7 
2.5 -0.47541 1.7 2.5 -0.42578 1.7 2.5 -0.376362 1.7 
2.5 -0.327195 1.7 2.5 -0.278277 1.7 2.5 -0.229561 1.7 
-2.95509 -2.21053 1.7 2.45509 -2.21053 1.7 2.45509 1.96053 1.7 
-2.95443 -2.16881 1.7 -2.9551 1.96052 1.7 -2.90805 1.961 1.7 
-2.85844 1.96128 1.7 -2.95443 1.91878 1.7 -2.95383 1.87378 1.7 
-2.95383 1.87355 1.7 -2.95346 1.82594 1.7 -2.95328 1.77628 1.7 
-2.95322 1.72565 1.7 -2.95323 1.67453 1.7 -2.95327 1.6231 1.7 
-2.95332 1.57138 1.7 -2.95338 1.51938 1.7 -2.95341 1.46738 1.7 
-2.95321 1.41643 1.7 -2.95299 1.36729 1.7 -2.95296 1.31915 1.7 
-2.95298 1.27097 1.7 -2.95299 1.22245 1.7 -2.95301 1.1735 1.7 
-2.95302 1.12418 1.7 -2.95303 1.07459 1.7 -2.95304 1.02481 1.7 
-2.95304 0.975156 1.7 -2.95304 0.974918 1.7 -2.95305 0.924968 1.7 
-2.95305 0.874988 1.7 -2.95305 0.824993 1.7 -2.95305 0.774989 1.7 
-2.95305 0.724972 1.7 -2.95306 0.674928 1.7 -2.95307 0.62483 1.7 
-2.95309 0.57463 1.7 -2.95312 0.524254 1.7 -2.95317 0.473607 1.7 
-2.95323 0.422584 1.7 -2.9533 0.371119 1.7 -2.95338 0.319264 1.7 
-2.95342 0.26734 1.7 -2.95301 0.167314 1.7 -2.95323 0.216428 1.7 
-2.80714 1.96138 1.7 2.40804 1.961 1.7 2.35844 1.96128 1.7 
2.30714 1.96138 1.7 2.25525 1.96132 1.7 2.20344 1.96123 1.7 
2.15201 1.96115 1.7 2.10106 1.9611 1.7 2.05051 1.96106 1.7 
2.00022 1.96104 1.7 1.95009 1.96103 1.7 1.90003 1.96102 1.7 
1.85001 1.96102 1.7 1.8 1.96102 1.7 1.75 1.96102 1.7 
1.7 1.96102 1.7 1.65 1.96102 1.7 1.6 1.96102 1.7 
1.55 1.96102 1.7 1.5 1.96102 1.7 1.45 1.96102 1.7 
1.4 1.96102 1.7 1.35 1.96102 1.7 1.3 1.96102 1.7 
1.25 1.96102 1.7 1.2 1.96102 1.7 1.15 1.96102 1.7 
1.1 1.96102 1.7 1.05 1.96102 1.7 1 1.96102 1.7 
0.95 1.96102 1.7 0.9 1.96102 1.7 0.85 1.96102 1.7 
0.8 1.96102 1.7 0.75 1.96102 1.7 0.7 1.96102 1.7 
0.65 1.96102 1.7 0.6 1.96102 1.7 0.55 1.96102 1.7 
0.5 1.96102 1.7 0.45 1.96102 1.7 0.4 1.96102 1.7 
0.35 1.96102 1.7 0.3 1.96102 1.7 0.25 1.96102 1.7 
0.2 1.96102 1.7 0.15 1.96102 1.7 0.1 1.96102 1.7 
0.0500002 1.96102 1.7 2.22173e-07 1.96102 1.7 -0.0499999 1.96102 1.7 
-0.1 1.96102 1.7 -0.15 1.96102 1.7 -0.2 1.96102 1.7 
-0.25 1.96102 1.7 -0.3 1.96102 1.7 -0.35 1.96102 1.7 
-0.4 1.96102 1.7 -0.45 1.96102 1.7 -0.5 1.96102 1.7 
-0.55 1.96102 1.7 -0.6 1.96102 1.7 -0.65 1.96102 1.7 
-0.7 1.96102 1.7 -0.75 1.96102 1.7 -0.8 1.96102 1.7 
-0.85 1.96102 1.7 -0.9 1.96102 1.7 -0.95 1.96102 1.7 
-1 1.96102 1.7 -1.05 1.96102 1.7 -1.1 1.96102 1.7 
-1.15 1.96102 1.7 -1.2 1.96102 1.7 -1.25 1.96102 1.7 
-1.3 1.96102 1.7 -1.35 1.96102 1.7 -1.4 1.96102 1.7 
-1.45 1.96102 1.7 -1.5 1.96102 1.7 -1.55 1.96102 1.7 
-1.6 1.96102 1.7 -1.65 1.96102 1.7 -1.7 1.96102 1.7 
-1.75 1.96102 1.7 -1.8 1.96102 1.7 -1.85 1.96102 1.7 
-1.9 1.96102 1.7 -1.95 1.96102 1.7 -2 1.96102 1.7 
-2.05 1.96102 1.7 -2.1 1.96102 1.7 -2.15 1.96102 1.7 
-2.2 1.96102 1.7 -2.25 1.96102 1.7 -2.3 1.96102 1.7 
-2.35001 1.96102 1.7 -2.40003 1.96102 1.7 -2.45009 1.96103 1.7 
-2.50022 1.96104 1.7 -2.55051 1.96106 1.7 -2.60106 1.9611 1.7 
-2.65201 1.96115 1.7 -2.70344 1.96123 1.7 -2.75525 1.96132 1.7 
2.45305 -0.624792 1.7 2.45304 -0.57507 1.7 2.45304 -0.525151 1.7 
2.45304 -0.475302 1.7 2.45303 -0.425558 1.7 2.45302 -0.375954 1.7 
2.45301 -0.32651 1.7 2.45301 -0.277196 1.7 2.45302 -0.227893 1.7 
2.4531 -0.178214 1.7 2.45317 -0.127861 1.7 2.45316 -0.0771344 1.7 
2.45313 -0.0264386 1.7 2.45311 0.0241071 1.7 2.45309 0.0744862 1.7 
2.45307 0.124726 1.7 2.45306 0.224938 1.7 2.45305 0.274736 1.7 
2.45306 0.174864 1.7 2.45305 -0.62503 1.7 2.45305 -0.675012 1.7 
2.45305 -0.725004 1.7 2.45305 -0.775002 1.7 2.45305 -0.825004 1.7 
2.45305 -0.87501 1.7 2.45305 -0.925025 1.7 2.45306 -0.975061 1.7 
2.45306 -1.02513 1.7 2.45307 -1.07527 1.7 2.45309 -1.12551 1.7 
2.45312 -1.1759 1.7 2.45315 -1.22645 1.7 2.45318 -1.27714 1.7 
2.45319 -1.32786 1.7 2.45312 -1.37821 1.7 2.45304 -1.42787 1.7 
2.45303 -1.47717 1.7 2.45303 -1.52648 1.7 2.45303 -1.57593 1.7 
2.45304 -1.62554 1.7 2.45304 -1.67531 1.7 2.45305 -1.72519 1.7 
2.45306 -1.77518 1.7 2.45307 -1.82528 1.7 2.4531 -1.87553 1.7 
2.45312 -1.92592 1.7 2.45315 -1.9764 1.7 2.45325 -2.02665 1.7 
[...]
POINT_DATA 4288
SCALARS p float
LOOKUP_TABLE default
-10.1845 -10.1821 -10.1839 -10.1869 -10.1913 -10.1951 -10.199 -10.204 -10.21 
-10.2164 -10.2229 -10.2294 -10.2358 -10.2423 -10.249 -10.2559 -10.2633 -10.2711 
-10.2796 -10.2887 -10.2984 -10.3088 -10.3197 -10.3314 -10.3436 -10.3565 -10.37 
-10.3841 -10.399 -10.4144 -10.4305 -10.4472 -10.4647 -10.4831 -10.5021 -10.5219 
-10.5426 -10.5638 -10.5851 -10.6066 -10.6284 -10.6506 -10.6733 -10.6965 -10.7203 
-10.7444 -10.769 -10.7941 -10.8197 -10.8458 -10.8723 -10.8993 -10.9267 -10.9545 
-10.9829 -11.0116 -11.0408 -11.0704 -11.1005 -11.1311 -11.1622 -11.1938 -11.2258 
-11.2583 -11.2912 -11.3245 -11.3582 -11.3923 -11.4268 -11.4616 -11.4969 -11.5325 
-11.5685 -11.6048 -11.6413 -11.6781 -11.7149 -11.7519 -11.7889 -11.8261 -11.8633 
-11.9005 -11.9376 -11.9746 -12.0113 -12.0476 -12.0834 -12.1186 -12.1529 -12.1863 
-12.2183 -12.249 -12.2779 -12.3048 -12.3296 -12.352 -12.372 -12.3893 -12.4041 
-12.4165 -12.4263 -12.4338 -12.439 -12.4419 -12.4427 -12.442 -12.4407 -12.4395 
-12.4387 -10.1878 -12.4384 -15.1026 -14.0966 -13.503 -13.1337 -12.868 -12.6728 
-12.5208 -12.2978 -12.2973 -12.3985 -12.2115 -12.1374 -12.072 -12.0135 -11.9604 
-11.9116 -11.8665 -11.8245 -11.7852 -11.7485 -11.7139 -11.6813 -11.6506 -11.6216 
-11.5943 -11.5686 -11.5443 -11.5212 -11.4992 -11.4783 -11.4582 -11.4389 -11.4205 
-11.4031 -12.438 -12.4379 -12.4408 -12.4493 -12.4645 -12.4867 -12.5167 -12.5552 
-12.6043 -12.6669 -12.7479 -12.856 -13.0027 -13.217 -13.5302 -14.0718 -15.0161 
-15.6026 -15.728 -11.3876 -11.375 -11.3666 -11.3629 -11.3611 -11.3564 -11.3458 
-11.3304 -11.3108 -11.2954 -11.2909 -10.2318 -10.1923 -10.2708 -10.3094 -10.3475 
-10.3853 -10.4226 -10.4593 -10.4954 -10.531 -10.5659 -10.6003 -10.634 -10.6671 
-10.6996 -10.7315 -10.7626 -10.7932 -10.823 -10.8521 -10.8806 -10.9083 -10.9352 
-10.9613 -10.9867 -11.0114 -11.0353 -11.0585 -11.0808 -11.1023 -11.1229 -11.1427 
-11.1616 -11.1796 -11.1968 -11.213 -11.2283 -11.2425 -11.2558 -11.268 -11.2792 
-11.2895 -11.2987 -11.3069 -11.3138 -11.3192 -11.3225 -11.3238 -11.3236 -11.3188 
-11.3288 -11.3691 -11.3972 -11.381 -11.3362 -9.44482 -9.3653 -9.55171 -9.62415 
-9.62335 -9.547 -9.41879 -9.27552 -9.14241 -9.03323 -8.95072 -8.88745 -8.83639 
-8.79381 -8.75987 -8.73545 -8.72097 -8.7162 -8.7206 -8.73322 -8.7533 -8.77977 
-8.81125 -8.84672 -8.88513 -8.92568 -8.96766 -9.01048 -9.05396 -9.09785 -9.14205 
-9.18661 -9.23144 -9.27632 -9.32113 -9.36582 -9.41041 -9.45605 -9.50283 -9.54964 
-9.5963 -9.64281 -9.68843 -9.73292 -9.77668 -9.81993 -9.86275 -9.90519 -9.94726 
-9.98899 -10.0304 -10.0714 -10.1121 -10.1524 -9.33937 -10.2234 -10.2093 -10.2504 
-10.2629 -10.2242 -10.1662 -10.1522 -10.1679 -10.1775 -10.1804 -10.1803 -10.1783 
-10.1753 -10.1713 -10.1667 -10.1616 -10.1561 -10.1501 -10.1438 -10.1372 -10.1302 
-10.1228 -10.1149 -10.1066 -10.0978 -10.0888 -10.0798 -10.0713 -10.0638 -10.0579 
-10.0541 -10.0531 -10.0561 -10.0651 -10.0816 -10.1083 -10.1478 -10.2038 -10.2801 
-10.3767 -10.4905 -10.6152 -10.7452 -10.8713 -10.9941 -11.1359 -11.335 -11.5915 
-12.0506 -12.3725 -9.91299 -10.0299 -9.807 -9.84557 -9.85239 -9.78747 -9.68073 
-9.5613 -9.38758 -9.38792 -9.45912 -9.34542 -9.33543 -12.5104 -12.5104 -12.5104 
-12.5103 -12.5103 -12.5103 -12.5103 -12.5103 -12.5103 -12.5103 -12.5103 -12.5103 
-12.5103 -12.5103 -12.5103 -12.5103 -12.5103 -12.5102 -12.5103 -12.5102 -12.5101 
-12.5101 -12.5101 -12.472 -20.6162 -20.6163 -20.6163 -20.6162 -20.6162 -20.6162 
-20.6162 -20.6162 -20.6162 -20.6163 -20.6163 -20.6163 -20.6163 -20.6163 -20.6162 
-20.6162 -20.6162 -20.6161 -20.6162 -20.6161 -20.616 -20.616 -20.6159 -20.616 
-10.1894 -12.4384 -11.3309 -10.2015 -9.42323 -9.51842 -9.62905 -9.44784 -9.49498 
-9.4953 -9.56235 -9.65587 -9.76464 -9.86509 -9.92661 -9.92973 -9.87329 -9.96283 
-10.5874 -11.5329 -12.1671 -12.4015 -12.6511 -12.9343 -13.2913 -13.3215 -13.4933 
-13.6637 -13.6645 -13.5371 -13.6515 -13.6313 -13.6808 -13.536 -13.6823 -13.4881 
-13.1337 -13.0858 -12.8513 -12.8227 -12.7486 -12.7673 -12.5965 -11.9204 -12.2828 
-9.69996 -11.3632 -11.3859 -11.3779 -11.3426 -11.3348 -11.3383 -11.3342 -11.3284 
-11.3221 -11.3148 -11.3066 -11.2975 -11.2875 -11.2765 -11.2646 -11.2518 -11.238 
-11.2232 -11.2075 -11.1909 -11.1734 -11.1549 -11.1357 -11.1157 -11.0949 -11.0732 
-11.0507 -11.0274 -11.0033 -10.9785 -10.953 -10.9267 -10.8996 -10.8718 -10.8432 
-10.8139 -10.784 -10.7533 -10.7219 -10.6898 -10.6572 -10.6239 -10.59 -10.5555 
-10.5204 -10.4846 -10.4483 -10.4114 -10.3739 -10.336 -10.2977 -10.2589 -10.2198 
-10.1802 -10.1403 -10.0999 -10.0592 -10.0182 -9.97684 -9.93522 -9.89333 -9.85106 
-9.80846 -9.76549 -9.72199 -9.67779 -9.6325 -9.58645 -9.54042 -9.49443 -9.44851 
-9.40372 -9.36026 -9.31706 -9.27402 -9.23133 -9.18922 -9.14798 -9.1078 -9.06868 
-9.03086 -8.99445 -8.95939 -8.92619 -8.89537 -8.86726 -8.84279 -8.82267 -8.80828 
-8.80064 -8.80031 -8.80819 -8.82481 -8.85052 -8.88487 -8.9279 -8.98022 -9.04613 
-9.1306 -9.23945 -9.36815 -9.50475 -9.62565 -9.69752 -19.5277 -19.5838 -19.5275 
-19.3423 -19.1589 -18.9355 -18.6077 -18.2287 -17.6774 -16.3062 -14.8015 -13.993 
-13.456 -13.1125 -12.8572 -12.6671 -12.3968 -12.2972 -12.5175 -19.5274 -19.4691 
-19.418 -19.3374 -19.3415 -19.4064 -19.4237 -19.4773 -19.5269 -19.4261 -19.266 
-19.0641 -18.7503 -18.3065 -17.6923 -16.2504 -14.7302 -13.9812 -13.4969 -13.206 
-13 -12.8566 -12.75 -12.6694 -12.6069 -12.5576 -12.5187 -12.4885 -12.4662 
-12.451 -12.4422 -12.4387 -12.2967 -12.2116 -12.138 -12.0729 -12.0147 -11.9615 
-11.9129 -11.8677 -11.8258 -11.7865 -11.7498 -11.7152 -11.6826 -11.6519 -11.6231 
-11.5959 -11.5704 -11.5465 -11.524 -11.5029 -11.4831 -11.4644 -11.4469 -11.4304 
-11.4151 -11.4014 -11.3897 -11.3809 -11.3752 -11.371 -11.3654 -11.3567 -11.3473 
-11.3341 -15.2176 -14.3204 -11.3587 -11.3487 -11.349 -11.3488 -11.3512 -11.3509 
-11.3539 -11.3478 -11.3466 -11.349 -11.3506 -11.3478 -11.3506 -11.3575 -11.3478 
-11.3478 -11.3471 -11.3453 -11.3426 -11.33 -11.3381 -11.3471 -11.3364 -11.33 
-11.3425 -11.3425 -11.33 -11.3289 -11.3364 -11.3357 -11.3425 -11.3466 -11.3593 
-11.3539 -11.3672 -11.363 -11.3714 -11.363 -11.3664 -11.3586 -11.3747 -11.3714 
-11.3425 -11.349 -11.3471 -11.3608 -11.3853 -11.378 -11.3905 -11.3812 -11.3758 
-11.3812 -11.3826 -11.3905 -11.3919 -11.4028 -11.4019 -11.4142 -11.4019 -11.3967 
-11.408 -11.4156 -11.4142 -11.322 -11.3225 -11.3144 -11.3154 -11.3246 -11.3313 
-11.3154 -11.3225 -11.3154 -11.3065 -11.3062 -11.277 -11.277 -11.2966 -11.286 
-11.298 -11.3072 -11.298 -11.2873 -11.2873 -11.2869 -11.298 -11.2969 -11.3509 
-11.3365 -11.4001 -10.1876 -12.4394 -12.4409 -12.4425 -12.4433 -12.4426 -12.4398 
-12.4348 -12.4275 -12.4178 -12.4055 -12.3907 -12.3733 -12.3533 -12.3307 -12.3059 
-12.2789 -12.2499 -12.2192 -12.1871 -12.1537 -12.1193 -12.0841 -12.0482 -12.0118 
-11.9751 -11.9381 -11.9009 -11.8637 -11.8264 -11.7891 -11.752 -11.7149 -11.678 
-11.6411 -11.6045 -11.5681 -11.5321 -11.4965 -11.4613 -11.4264 -11.392 -11.3579 
-11.3242 -11.2908 -11.2579 -11.2255 -11.1935 -11.162 -11.1309 -11.1003 -11.0702 
-11.0406 -11.0114 -10.9827 -10.9544 -10.9265 -10.8991 -10.8722 -10.8456 -10.8196 
-10.794 -10.769 -10.7443 -10.7202 -10.6965 -10.6733 -10.6506 -10.6284 -10.6066 
-10.5851 -10.5638 -10.5427 -10.522 -10.5021 -10.4831 -10.4648 -10.4473 -10.4306 
-10.4146 -10.3992 -10.3843 -10.3702 -10.3567 -10.3438 -10.3316 -10.32 -10.309 
-10.2987 -10.2889 -10.2799 -10.2715 -10.2636 -10.2564 -10.2496 -10.2431 -10.237 
-10.2311 -10.2254 -10.2201 -10.2153 -10.2111 -10.2078 -10.2051 -10.202 -10.1979 
-10.1936 -12.4406 -11.423 -11.4446 -11.438 -11.429 -11.429 -11.4302 -11.4446 
-11.4464 -11.4639 -11.4627 -11.4564 -11.4627 -11.4812 -11.4748 -11.4827 -11.4812 
-11.5028 -11.5231 -11.5019 -11.496 -11.5171 -11.5242 -11.5019 -11.5231 -11.4297 
-11.3511 -11.3667 -11.3715 -11.3881 -11.3159 -11.3065 -11.3181 -11.2959 -11.3316 
-11.3085 -11.3508 -11.3266 -11.2758 -11.277 -11.2643 -11.2639 -11.2521 -11.2608 
-11.2734 -11.2643 -11.2521 -11.2521 -11.251 -11.417 -11.2699 -11.2318 -11.2403 
-11.2235 -11.2235 -11.2463 -11.2375 -11.2375 -11.2372 -11.2224 -11.2235 -11.207 
-11.2067 -11.2156 -11.207 -11.1911 -11.1992 -11.1911 -11.1911 -11.1901 -10.3004 
-10.231 -10.2725 -10.2037 -11.1552 -11.1813 -11.1728 -11.1631 -11.1552 -11.1728 
-11.1726 -11.1541 -11.1552 -11.1352 -11.1349 -11.0733 -11.1159 -11.1159 -11.1236 
-11.0943 -11.0733 -11.1023 -11.0808 -11.1435 -11.1352 -11.1159 -11.1149 -11.2073 
-11.1709 -11.2516 -11.2181 -11.1815 -11.1955 -11.2329 -11.2674 -11.2987 -11.2818 
-11.3993 -11.4662 -11.4525 -11.5081 -11.541 -11.5704 -11.5463 -11.5648 -11.5463 
-11.5469 -11.5704 -11.5711 -11.5968 -11.5917 -11.5965 -11.6239 -11.6239 -11.6184 
-11.5965 -11.6239 -11.6243 -11.6533 -11.6533 -11.6485 -11.6785 -11.6842 -11.6239 
-11.6533 -11.6842 -11.6844 -11.6842 -11.7171 -11.7122 -11.7172 -11.752 -11.752 
-11.6842 -11.7457 -11.7172 -11.752 -11.752 -11.7889 -11.7891 -11.8283 -11.8211 
-11.7836 -11.8283 -11.7891 -11.752 -11.8282 -11.8283 -11.5553 -11.6083 -11.3515 
-11.3774 -11.3825 -11.4102 -11.4336 -11.4933 -11.4731 -11.5393 -11.5177 -11.4482 
-11.4188 -11.2886 -11.3218 -11.315 -11.3506 -11.3848 -11.4602 -11.4241 -11.4913 
-11.6678 -11.7342 -11.8083 -11.7864 -11.7143 -11.6493 -11.5912 -11.568 -11.6243 
-11.5398 -11.5941 -11.5068 -11.5589 -11.6545 -11.6166 -11.7212 -11.6802 -11.6872 
-11.7568 -11.0943 -11.094 -11.0723 -11.0733 -11.0501 -11.0499 -11.1312 -11.0882 
-11.1417 -11.0988 -11.1551 -11.1116 -11.2523 -11.2134 -11.2762 -11.2348 -11.3046 
-11.3465 -11.3834 -11.3384 -11.8703 -11.9151 -11.8283 -11.9151 -11.9064 -11.864 
-11.8703 -11.8701 -11.9151 -11.9152 -11.9638 -11.9637 -11.9558 -11.9637 -12.0161 
-11.9151 -12.0044 -12.0161 -12.0168 -12.0161 -12.0748 -12.0625 -12.1195 -12.1372 
-12.074 -12.1372 -12.0161 -12.1392 -12.074 -12.1372 -11.9849 -11.8911 -12.1881 
-12.2895 -12.2895 -12.2583 -12.2097 -12.1372 -12.2097 -12.2123 -12.2895 -12.2955 
-12.3937 -12.3937 -12.8307 -12.654 -12.5098 -12.3943 -12.493 -12.3439 -12.3859 
-12.2895 -12.493 -12.493 -12.4322 -12.3859 -12.493 -12.4936 -12.6328 -12.5438 
-12.493 -12.7859 -12.7859 -12.7859 -12.6598 -13.0643 -13.7884 -13.3545 -13.0058 
-13.234 -12.786 -13.2338 -12.8118 -13.2338 -12.9708 -13.6149 -13.9686 -13.3903 
-13.1752 -13.2343 -13.9688 -13.9691 -12.0924 -11.8336 -11.8663 -11.9179 -11.9553 
-12.0553 -12.0108 -12.1687 -12.1137 -12.2177 -12.3665 -11.4254 -11.4687 -11.4725 
-11.5184 -11.5734 -11.6338 -11.5247 -11.5819 -11.4706 -11.4216 -11.4115 -11.3659 
-11.3253 -11.3774 -11.2899 -11.0265 -11.0276 -11.0579 -11.0276 -11.0501 -11.0276 
-11.0349 -10.9788 -11.0104 -10.9858 -11.0028 -10.9788 -10.9788 -11.0422 -10.993 
-11.0527 -11.0035 -11.0025 -10.9777 -11.0028 -10.9788 -10.9525 -10.9522 -10.9598 
-10.9788 -10.927 -10.927 -10.9525 -10.927 -10.9337 -10.927 -10.9259 -11.2599 
-11.1276 -11.1719 -11.1465 -11.1916 -11.2135 -11.1664 -10.8786 -10.8853 -10.9407 
-10.8721 -10.8721 -10.8992 -10.8721 -10.927 -10.9062 -10.8988 -10.871 -10.8992 
-10.8721 -10.8429 -10.8425 -10.8132 -10.8143 -10.8721 -10.8429 -10.8496 -10.8143 
-10.8143 -10.8205 -10.8143 -10.7535 -10.7535 -10.7535 -10.79 -10.7836 -10.7594 
-10.8143 -10.7833 -10.7526 -10.7836 -10.7535 -11.0651 -11.0157 -11.0991 -11.0805 
-11.0305 -11.0489 -11.1185 -11.0687 -10.8269 -10.7656 -10.8375 -10.776 -10.9513 
-10.896 -11.2395 -11.1888 -11.1388 -11.3066 -11.2704 -11.2152 -11.2461 -11.1876 
-11.1616 -10.7276 -10.6957 -10.69 -10.69 -10.69 -10.7214 -10.7535 -10.69 
-10.6891 -10.7214 -10.7212 -10.6566 -10.6564 -10.6625 -10.69 -10.6566 -10.624 
-10.624 -10.624 -10.6293 -10.6231 -10.624 -10.5894 -10.5893 -10.5547 -10.5555 
-10.624 -10.595 -10.5894 -10.5555 -10.5555 -10.5555 -10.5605 -10.4846 -10.5197 
-10.5249 -10.5555 -10.4846 -10.4846 -10.4893 -10.5197 -10.5196 -10.4838 -10.4846 
-10.4476 -10.4476 -10.4106 -10.4113 -10.4159 -10.4476 -10.4526 -10.4113 -10.4846 
-10.4113 -10.4113 -10.4113 -10.3359 -10.3359 -10.3731 -10.3406 -10.3359 -10.3782 
-10.3731 -10.3351 -10.3731 -10.3359 -10.2969 -10.2969 -10.225 -10.259 -10.2192 
-10.2639 -10.259 -10.1806 -10.1806 -10.1861 -10.259 -10.1806 -10.2192 -10.2191 
-10.259 -10.2581 -10.7014 -10.6346 -10.7115 -10.5654 -10.4938 -10.5024 -10.5745 
-10.6442 -10.8495 -10.7876 -10.9081 -10.9635 -10.9958 -10.9777 -10.9219 -11.5245 
-11.4617 -11.5828 -11.5162 -11.8744 -11.7945 -11.7497 -11.8253 -11.9065 -11.9611 
-12.0551 -11.9933 -12.228 -12.1568 -12.7745 -12.5479 -13.0581 -12.8393 -12.6283 
-12.4498 -12.2988 -12.3549 -12.2666 -12.1823 -12.0853 -12.0115 -11.9272 -11.7706 
-11.6995 -11.644 -11.7108 -11.6455 -11.5747 -11.8467 -11.7819 -11.8568 -11.7819 
-11.7121 -11.6368 -11.7018 -12.0987 -11.9346 -12.0142 -11.854 -11.7689 -11.9274 
-11.8369 -12.0946 -12.0008 -12.4958 -12.6509 -12.3843 -12.5094 -12.2836 -12.3878 
-12.2779 -12.188 -12.1743 -13.0813 -12.8165 -14.6508 -13.6558 -15.1083 -13.9076 
-15.1092 -13.9697 -15.1089 -16.2089 -16.8639 -15.7177 -14.1503 -15.1099 -15.7442 
-15.7442 -15.7435 -14.375 -17.2385 -18.072 -17.8252 -17.6408 -17.4628 -16.0738 
-14.5793 -16.0549 -15.7444 -16.0549 -14.7635 -16.0547 -16.4259 -14.979 -16.055 
-16.4978 -16.4982 -15.1714 -16.4982 -16.5057 -16.4982 -18.2562 -18.2498 -18.249 
-16.7972 -15.3513 -16.4982 -15.5069 -16.8565 -16.7972 -16.8565 -16.7972 -18.3497 
-18.347 -16.977 -16.8752 -15.607 -16.7972 -16.977 -16.8752 -15.6901 -18.3198 
-16.8752 -18.2834 -15.7054 -16.9142 -15.7239 -16.8752 -17.0285 -16.9142 -17.0285 
-16.9142 -18.2835 -18.2925 -16.9998 -15.6738 -15.6114 -16.83 -16.9998 -16.83 
-16.9142 -18.3008 -16.83 -18.2741 -15.4879 -16.6366 -15.3418 -16.83 -16.9243 
-16.9243 -16.6366 -18.1563 -17.9198 -16.5504 -15.161 -16.1678 -14.9554 -16.5504 
-17.7272 -16.1678 -17.5658 -14.7575 -15.8584 -16.1586 -14.5352 -16.1586 -15.8584 
-17.3829 -16.9867 -15.8334 -14.2972 -15.8334 -15.2077 -14.0374 -16.2641 -15.2077 
-15.2068 -13.5269 -13.79 -14.7044 -14.0174 -14.7044 -14.0174 -14.3029 -13.813 
-13.6763 -13.3427 -13.3407 -13.6763 -13.1471 -13.4253 -13.3407 -13.1803 -12.9665 
-13.0219 -13.1437 -12.8893 -13.1437 -12.9665 -12.9902 -12.8568 -12.8473 -12.7467 
-12.8048 -12.8473 -12.7157 -12.7526 -12.7467 -12.6746 -10.9595 -11.0159 -10.9802 
-11.0361 -10.9394 -10.8796 -10.8628 -11.2823 -11.3481 -11.3235 -11.3943 -11.0885 
-11.1097 -10.9201 -10.8994 -10.8167 -10.8362 -10.8004 -10.655 -10.7227 -11.1327 
-11.158 -11.2177 -11.1867 -11.2527 -11.4446 -11.4986 -11.3691 -11.4185 -11.2925 
-11.3364 -11.2196 -11.2569 -11.1555 -11.1281 -11.0797 -11.0574 -11.002 -11.0249 
-10.9655 -10.942 -10.9016 -10.8782 -10.8566 -11.0486 -11.1031 -11.0731 -11.0154 
-10.9901 -10.9262 -10.952 -11.9045 -10.9786 -11.0413 -11.0058 -11.0676 -11.0985 
-11.1252 -11.186 -11.2201 -11.2981 -11.3838 -11.471 -11.556 -11.5262 -11.6163 
-11.6785 -11.7415 -11.5833 -11.6414 -11.4857 -11.4338 -11.3426 -11.2577 -11.1846 
-11.1538 -11.0944 -12.0728 -13.7775 -13.4061 -14.4043 -14.1162 -13.5329 -13.3241 
-12.9803 -12.6397 -12.7689 -12.4928 -12.5942 -12.3666 -13.7093 -13.1298 -13.2609 
-12.8877 -12.6872 -12.9903 -12.7681 -13.3675 -13.0722 -14.731 -14.6176 -13.8512 
-14.7477 -14.6769 -13.9211 -13.9611 -13.4384 -13.9379 -13.464 -13.4423 -14.2636 
-14.5123 -13.8186 -13.5743 -13.9427 -13.4881 -13.6714 -13.3788 -13.2836 -11.9706 
-11.8653 -11.8042 -11.7559 -11.6993 -11.6438 -11.5917 -11.5387 -11.3893 -11.4372 
-11.2982 -10.4201 -10.3448 -10.4283 -10.3529 -10.4367 -10.3603 -10.5116 -10.5846 
-10.1467 -10.1074 -10.1008 -10.1008 -10.1399 -10.1806 -10.1008 -10.1008 -10.0992 
-10.1399 -10.1396 -10.1795 -10.1806 -10.3022 -10.3359 -10.2969 -10.259 -10.2683 
-10.191 -10.1998 -10.2766 -10.2834 -10.2066 -10.6667 -10.5955 -10.7509 -10.735 
-10.6821 -10.61 -10.5347 -10.5214 -10.7012 -10.7702 -10.7217 -10.7906 -10.812 
-10.835 -10.7431 -10.7661 -10.6706 -10.649 -10.6938 -10.5939 -10.6175 -10.5723 
-10.5523 -10.6286 -10.4449 -10.4567 -10.3671 -10.3773 -10.2891 -10.4925 -10.4732 
-10.3928 -10.4115 -10.3311 -10.313 -10.2122 -10.2214 -10.2983 -10.2356 -10.2533 
-10.3515 -10.2735 -10.5376 -10.5139 -10.4324 -10.4557 -10.3743 -10.8593 -10.8849 
-10.7904 -10.8159 -10.7185 -10.7443 -10.6429 -10.6696 -10.5635 -10.5909 -10.4814 
-10.5091 -10.3994 -10.3201 -10.2957 -10.9115 -10.8424 -10.9392 -10.8701 -10.4267 
-10.3469 -10.6972 -10.7713 -10.7258 -10.7992 -10.8986 -10.828 -11.0333 -11.0609 
-11.122 -11.218 -11.1505 -11.3407 -11.2537 -11.4852 -11.5326 -11.2909 -11.3838 
-11.3286 -11.4265 -11.9236 -11.81 -12.2517 -12.3246 -12.4512 -12.3909 -12.5285 
-12.4487 -12.5957 -12.8335 -12.6503 -12.3165 -12.2654 -12.2067 -12.142 -12.0337 
-12.0924 -12.1455 -12.1918 -12.2305 -12.3589 -12.4961 -12.8792 -13.1268 -12.9016 
-13.1495 -12.9001 -13.1398 -12.6897 -12.5313 -12.3912 -12.2607 -12.4127 -12.2819 
-12.5531 -12.7116 -12.5609 -12.7156 -12.423 -12.2936 -12.8772 -12.7032 -13.1641 
-13.0289 -13.2702 -13.2431 -13.0576 -12.9973 -13.1011 -13.0388 -12.8375 -12.9573 
-12.8638 -12.7845 -12.7226 -12.6416 -12.6775 -12.5555 -12.5389 -12.8166 -12.6819 
-12.6413 -12.7492 -12.8849 -12.8958 -12.7792 -12.7707 -12.6585 -12.5962 -12.686 
-12.6793 -12.5932 -12.5381 -12.6089 -12.5345 -12.4746 -12.4016 -12.4534 -12.5138 
-12.4828 -12.5988 -12.5528 -12.4121 -12.4225 -12.2961 -12.2896 -12.275 -12.3934 
-12.369 -12.2544 -12.3401 -12.2287 -12.5049 -12.4479 -12.4087 -12.3058 -12.1977 
-12.1659 -12.2675 -12.3645 -12.3204 -12.2321 -12.1397 -12.5563 -12.5209 -12.6729 
-12.612 -12.6562 -12.5994 -12.6729 -12.612 -12.6121 -12.5628 -12.564 -12.56 
-12.564 -12.5253 -12.5222 -12.5232 -12.5253 -12.4924 -12.4993 -12.4941 -12.4772 
-12.4731 -12.4941 -12.4731 -12.4695 -12.4545 -12.4575 -12.4543 -12.4509 -12.4575 
-12.4491 -12.4453 -12.4491 -12.4432 -12.4456 -12.4468 -12.4509 -12.4543 -12.4723 
-12.5132 -12.5827 -12.4508 -12.4747 -12.4525 -12.4463 -12.4525 -12.4508 -12.4433 
-12.422 -12.4766 -12.3798 -12.4276 -12.4651 -12.4937 -12.456 -12.4641 -12.4373 
-12.4439 -12.4138 -12.4431 -12.4258 -12.4304 -12.3957 -12.3367 -12.3735 -12.3801 
-12.3515 -12.3587 -12.2973 -12.3215 -12.2843 -12.357 -12.2552 -11.0886 -11.1802 
-11.1161 -11.211 -11.1436 -11.2426 -11.1709 -11.5783 -11.468 -12.235 -12.2236 
-12.266 -12.2841 -12.254 -12.3106 -12.3243 -12.4311 -12.4384 -12.4439 -12.4374 
-10.2225 -10.2005 -10.0587 -10.0178 -10.0594 -10.0678 -10.0594 -10.1008 -10.02 
-10.02 -10.02 -10.0282 -10.02 -9.97789 -9.97662 -9.90812 -9.85549 -9.93825 
-9.85549 -9.93825 -9.89544 -9.93825 -9.85549 -9.94854 -9.86783 -9.98833 -9.97789 
-10.02 -9.93825 -9.93825 -9.93516 -9.89544 -9.89352 -9.85151 -9.85549 -9.81175 
-9.80915 -9.8261 -9.81175 -9.85549 -9.77106 -9.77106 -9.77106 -9.78465 -9.77106 
-9.76638 -9.87683 -9.95663 -10.035 -10.0465 -10.123 -10.0565 -10.1309 -10.1131 
-9.96957 -9.8907 -9.98223 -9.90506 -10.1377 -9.68412 -9.68412 -9.69842 -9.77106 
-9.72596 -9.68412 -9.74136 -9.72596 -9.72293 -9.67883 -9.68412 -9.63705 -9.63353 
-9.79359 -9.70567 -9.80695 -9.71618 -9.82068 -9.72646 -9.62275 -9.61794 -9.61291 
-9.60917 -9.59409 -9.68412 -9.63705 -9.59409 -9.59409 -9.6535 -9.59409 -9.5877 
-9.5465 -9.54211 -9.50413 -9.50413 -9.517 -9.5465 -9.56275 -9.59409 -9.49675 
-9.50413 -10.456 -10.3757 -10.5383 -10.996 -10.9674 -10.9278 -10.8576 -10.7553 
-10.7854 -10.6795 -10.6491 -10.6195 -10.5688 -10.4869 -10.4063 -10.5191 -10.4386 
-10.9573 -11.0246 -10.9866 -11.0528 -11.0805 -11.1072 -11.0154 -11.0431 -10.9475 
-10.9178 -10.8773 -10.9073 -10.9764 -10.8468 -10.816 -10.8876 -10.7106 -10.6002 
-10.6324 -10.5524 -10.4726 -10.5865 -10.5077 -10.7737 -10.7421 -10.6651 -10.6981 
-10.6209 -11.1981 -11.1328 -11.9777 -11.8604 -11.7406 -11.6938 -11.6214 -12.0266 
-12.0694 -11.906 -11.946 -11.7832 -11.661 -11.6962 -11.8208 -12.1338 -12.1053 
-11.9797 -12.0067 -11.8784 -11.8527 -11.7263 -11.7509 -11.8975 -11.7696 -12.0265 
-12.1543 -12.1667 -12.039 -12.1708 -12.044 -12.0413 -12.1667 -12.1549 -12.0322 
-12.1373 -12.0182 -12.1147 -11.91 -11.7824 -11.605 -11.5766 -11.4351 -11.5438 
-11.4656 -11.4016 -11.5074 -11.3658 -11.2746 -11.2251 -11.3062 -11.3649 -11.3365 
-11.2515 -11.277 -11.3906 -11.301 -11.4926 -11.5155 -11.6286 -11.6472 -11.5343 
-11.6608 -11.5492 -12.3973 -12.4129 -12.4088 -12.4213 -12.4258 -12.4138 -12.0487 