# vtk DataFile Version 5.1
vtk output
ASCII
DATASET POLYDATA
POINTS 6242 float
-1.314 -0.1347 0.6 -1.314 -0.113241 0.6 -1.314 -0.0915027 0.6 
-1.314 -0.0692662 0.6 -1.314 -0.0464113 0.6 -1.314 -0.0229288 0.6 
-1.314 0.00109675 0.6 -1.314 0.0255304 0.6 -1.314 0.0502333 0.6 
-1.314 0.0750928 0.6 -1.314 0.100033 0.6 -1.314 0.125011 0.6 
-1.314 0.150003 0.6 -1.314 0.175001 0.6 -1.314 0.2 0.6 
-1.314 0.225 0.6 -1.314 0.25 0.6 -1.314 0.275 0.6 
-1.314 0.3 0.6 -1.314 0.325 0.6 -1.314 0.35 0.6 
-1.314 0.374998 0.6 -1.314 0.399994 0.6 -1.314 0.424979 0.6 
-1.314 0.449942 0.6 -1.314 0.474855 0.6 -1.314 0.49967 0.6 
-1.314 0.524318 0.6 -1.314 0.548709 0.6 -1.314 0.572756 0.6 
-1.314 0.596402 0.6 -1.314 0.619647 0.6 -1.314 0.642566 0.6 
-1.314 0.6653 0.6 -1.29156 -0.1347 0.6 -1.26892 -0.1347 0.6 
-1.24591 -0.1347 0.6 -1.22245 -0.1347 0.6 -1.19853 -0.1347 0.6 
-1.17422 -0.1347 0.6 -1.14962 -0.1347 0.6 -1.12483 -0.1347 0.6 
-1.09993 -0.1347 0.6 -1.07498 -0.1347 0.6 -1.04999 -0.1347 0.6 
-1.025 -0.1347 0.6 -1 -0.1347 0.6 -0.975 -0.1347 0.6 
-0.95 -0.1347 0.6 -0.925 -0.1347 0.6 -0.9 -0.1347 0.6 
-0.875 -0.1347 0.6 -0.85 -0.1347 0.6 -0.825001 -0.1347 0.6 
-0.800003 -0.1347 0.6 -0.77501 -0.1347 0.6 -0.75003 -0.1347 0.6 
-0.725085 -0.1347 0.6 -0.700212 -0.1347 0.6 -0.675483 -0.1347 0.6 
-0.650999 -0.1347 0.6 -0.626887 -0.1347 0.6 -0.603273 -0.1347 0.6 
-0.580234 -0.1347 0.6 -0.557764 -0.1347 0.6 -0.535752 -0.1347 0.6 
-0.514 -0.1347 0.6 -1.29156 0.6653 0.6 -1.26892 0.6653 0.6 
-1.24591 0.6653 0.6 -1.22245 0.6653 0.6 -1.19853 0.6653 0.6 
-1.17422 0.6653 0.6 -1.14962 0.6653 0.6 -1.12483 0.6653 0.6 
-1.09993 0.6653 0.6 -1.07498 0.6653 0.6 -1.04999 0.6653 0.6 
-1.025 0.6653 0.6 -1 0.6653 0.6 -0.975 0.6653 0.6 
-0.95 0.6653 0.6 -0.925 0.6653 0.6 -0.9 0.6653 0.6 
-0.875 0.6653 0.6 -0.85 0.6653 0.6 -0.825 0.6653 0.6 
-0.800003 0.6653 0.6 -0.77501 0.6653 0.6 -0.75003 0.6653 0.6 
-0.725085 0.6653 0.6 -0.700212 0.6653 0.6 -0.675483 0.6653 0.6 
-0.650999 0.6653 0.6 -0.626887 0.6653 0.6 -0.603273 0.6653 0.6 
-0.580234 0.6653 0.6 -0.557763 0.6653 0.6 -0.535752 0.6653 0.6 
-0.514 0.6653 0.6 -0.514 -0.113241 0.6 -0.514 -0.0915027 0.6 
-0.514 -0.0692662 0.6 -0.514 -0.0464112 0.6 -0.514 -0.0229287 0.6 
-0.514 0.00109677 0.6 -0.514 0.0255305 0.6 -0.514 0.0502333 0.6 
-0.514 0.0750928 0.6 -0.514 0.100033 0.6 -0.514 0.12501 0.6 
-0.514 0.150003 0.6 -0.514 0.175001 0.6 -0.514 0.2 0.6 
-0.514 0.225 0.6 -0.514 0.25 0.6 -0.514 0.275 0.6 
-0.514 0.3 0.6 -0.514 0.325 0.6 -0.514 0.35 0.6 
-0.514 0.374998 0.6 -0.514 0.399994 0.6 -0.514 0.424979 0.6 
-0.514 0.449942 0.6 -0.514 0.474855 0.6 -0.514 0.49967 0.6 
-0.514 0.524318 0.6 -0.514 0.548709 0.6 -0.514 0.572756 0.6 
-0.514 0.596402 0.6 -0.514 0.619647 0.6 -0.514 0.642566 0.6 
-2.95593 -2.25 0.6 -2.91015 -2.25 0.6 -2.86165 -2.25 0.6 
-2.81055 -2.25 0.6 -2.75795 -2.25 0.6 -2.70513 -2.25 0.6 
-2.6529 -2.25 0.6 -2.60145 -2.25 0.6 -2.55065 -2.25 0.6 
-2.50026 -2.25 0.6 -2.4501 -2.25 0.6 -2.40003 -2.25 0.6 
-2.35001 -2.25 0.6 -2.3 -2.25 0.6 -2.25 -2.25 0.6 
-2.2 -2.25 0.6 -2.15 -2.25 0.6 -2.1 -2.25 0.6 
-2.05 -2.25 0.6 -2 -2.25 0.6 -1.95 -2.25 0.6 
-1.9 -2.25 0.6 -1.85 -2.25 0.6 -1.8 -2.25 0.6 
-1.75 -2.25 0.6 -1.7 -2.25 0.6 -1.65 -2.25 0.6 
-1.6 -2.25 0.6 -1.55 -2.25 0.6 -1.5 -2.25 0.6 
-1.45 -2.25 0.6 -1.4 -2.25 0.6 -1.35 -2.25 0.6 
-1.3 -2.25 0.6 -1.25 -2.25 0.6 -1.2 -2.25 0.6 
-1.15 -2.25 0.6 -1.1 -2.25 0.6 -1.05 -2.25 0.6 
-1 -2.25 0.6 -0.95 -2.25 0.6 -0.9 -2.25 0.6 
-0.85 -2.25 0.6 -0.8 -2.25 0.6 -0.75 -2.25 0.6 
-0.7 -2.25 0.6 -0.65 -2.25 0.6 -0.6 -2.25 0.6 
-0.55 -2.25 0.6 -0.5 -2.25 0.6 -0.45 -2.25 0.6 
-0.4 -2.25 0.6 -0.35 -2.25 0.6 -0.3 -2.25 0.6 
-0.25 -2.25 0.6 -0.2 -2.25 0.6 -0.15 -2.25 0.6 
-0.1 -2.25 0.6 -0.0499998 -2.25 0.6 2.90599e-07 -2.25 0.6 
0.0499999 -2.25 0.6 0.0999997 -2.25 0.6 0.15 -2.25 0.6 
0.2 -2.25 0.6 0.25 -2.25 0.6 0.3 -2.25 0.6 
0.35 -2.25 0.6 0.4 -2.25 0.6 0.45 -2.25 0.6 
0.5 -2.25 0.6 0.55 -2.25 0.6 0.6 -2.25 0.6 
0.65 -2.25 0.6 0.7 -2.25 0.6 0.75 -2.25 0.6 
0.8 -2.25 0.6 0.85 -2.25 0.6 0.9 -2.25 0.6 
0.95 -2.25 0.6 1 -2.25 0.6 1.05 -2.25 0.6 
1.1 -2.25 0.6 1.15 -2.25 0.6 1.2 -2.25 0.6 
1.25 -2.25 0.6 1.3 -2.25 0.6 1.35 -2.25 0.6 
1.4 -2.25 0.6 1.45 -2.25 0.6 1.5 -2.25 0.6 
1.55 -2.25 0.6 1.6 -2.25 0.6 1.65 -2.25 0.6 
1.7 -2.25 0.6 1.75 -2.25 0.6 1.8 -2.25 0.6 
1.85001 -2.25 0.6 1.90003 -2.25 0.6 1.95009 -2.25 0.6 
2.00026 -2.25 0.6 2.05065 -2.25 0.6 2.10145 -2.25 0.6 
2.1529 -2.25 0.6 2.20513 -2.25 0.6 2.25795 -2.25 0.6 
2.31055 -2.25 0.6 2.36165 -2.25 0.6 2.41015 -2.25 0.6 
2.45593 -2.25 0.6 -3 -2.25 0.6 2.5 -2.25 0.6 
2.5 -2.21035 0.6 2.5 -2.16898 0.6 2.5 -2.12474 0.6 
2.5 -2.07747 0.6 2.5 -2.02793 0.6 2.5 -1.97728 0.6 
2.5 -1.92641 0.6 2.5 -1.87574 0.6 2.5 -1.82533 0.6 
2.5 -1.77513 0.6 2.5 -1.72503 0.6 2.5 -1.67497 0.6 
2.5 -1.62491 0.6 2.5 -1.61486 0.6 2.5 -1.57484 0.6 
2.5 -1.52474 0.6 2.5 -1.47462 0.6 2.5 -1.42451 0.6 
2.5 -1.37444 0.6 2.5 -1.3744 0.6 2.5 -1.32444 0.6 
2.5 -1.27449 0.6 2.5 -1.22459 0.6 2.5 -1.1747 0.6 
2.5 -1.12481 0.6 2.5 -1.07489 0.6 2.5 -1.02494 0.6 
2.5 -0.97497 0.6 2.5 -0.924986 0.6 2.5 -0.874994 0.6 
2.5 -0.824998 0.6 2.5 -0.774999 0.6 2.5 -0.725001 0.6 
2.5 -0.675002 0.6 2.5 -0.625005 0.6 2.5 -0.575009 0.6 
2.5 -0.525015 0.6 2.5 -0.457198 0.6 2.5 -0.425035 0.6 
2.5 -0.475024 0.6 2.5 -0.375049 0.6 2.5 -0.325066 0.6 
2.5 -0.275085 0.6 2.5 -0.225108 0.6 2.5 -0.17513 0.6 
2.5 -0.125143 0.6 2.5 -0.0751416 0.6 2.5 -0.0251226 0.6 
2.5 0.024907 0.6 2.5 0.0749376 0.6 2.5 0.124963 0.6 
2.5 0.17498 0.6 2.5 0.17505 0.6 2.5 0.22499 0.6 
2.5 0.274995 0.6 2.5 0.324998 0.6 2.5 0.374999 0.6 
2.5 0.424999 0.6 2.5 0.475 0.6 2.5 0.525 0.6 
2.5 0.575 0.6 2.5 0.625 0.6 2.5 0.675 0.6 
2.5 0.725 0.6 2.5 0.775 0.6 2.5 0.825 0.6 
2.5 0.875 0.6 2.5 0.925 0.6 2.5 0.975 0.6 
2.5 1.025 0.6 2.5 1.075 0.6 2.5 1.125 0.6 
2.5 1.175 0.6 2.5 1.225 0.6 2.5 1.275 0.6 
2.5 1.325 0.6 2.5 1.375 0.6 2.5 1.42502 0.6 
2.5 1.47505 0.6 2.5 1.52514 0.6 2.5 1.57534 0.6 
2.5 1.62574 0.6 2.5 1.67641 0.6 2.5 1.72728 0.6 
2.5 1.77793 0.6 2.5 1.82747 0.6 2.5 1.87474 0.6 
2.5 1.91898 0.6 2.5 1.96035 0.6 2.5 2 0.6 
-2.91015 2 0.6 -2.95593 2 0.6 -2.86165 2 0.6 
-2.81055 2 0.6 -2.75795 2 0.6 -2.70513 2 0.6 
-2.6529 2 0.6 -2.60145 2 0.6 -2.55065 2 0.6 
-2.50026 2 0.6 -2.4501 2 0.6 -2.40003 2 0.6 
-2.35001 2 0.6 -2.3 2 0.6 -2.25 2 0.6 
-2.2 2 0.6 -2.15 2 0.6 -2.1 2 0.6 
-2.05 2 0.6 -2 2 0.6 -1.95 2 0.6 
-1.9 2 0.6 -1.85 2 0.6 -1.8 2 0.6 
-1.75 2 0.6 -1.7 2 0.6 -1.65 2 0.6 
-1.6 2 0.6 -1.55 2 0.6 -1.5 2 0.6 
-1.45 2 0.6 -1.4 2 0.6 -1.35 2 0.6 
-1.3 2 0.6 -1.25 2 0.6 -1.2 2 0.6 
-1.15 2 0.6 -1.1 2 0.6 -1.05 2 0.6 
-1 2 0.6 -0.95 2 0.6 -0.9 2 0.6 
-0.85 2 0.6 -0.8 2 0.6 -0.75 2 0.6 
-0.7 2 0.6 -0.65 2 0.6 -0.6 2 0.6 
-0.55 2 0.6 -0.5 2 0.6 -0.45 2 0.6 
-0.4 2 0.6 -0.35 2 0.6 -0.3 2 0.6 
-0.25 2 0.6 -0.2 2 0.6 -0.15 2 0.6 
-0.1 2 0.6 -0.05 2 0.6 1.72426e-07 2 0.6 
0.0499998 2 0.6 0.0999997 2 0.6 0.15 2 0.6 
0.2 2 0.6 0.25 2 0.6 0.3 2 0.6 
0.35 2 0.6 0.4 2 0.6 0.45 2 0.6 
0.5 2 0.6 0.55 2 0.6 0.6 2 0.6 
0.65 2 0.6 0.7 2 0.6 0.75 2 0.6 
0.8 2 0.6 0.85 2 0.6 0.9 2 0.6 
0.95 2 0.6 1 2 0.6 1.05 2 0.6 
1.1 2 0.6 1.15 2 0.6 1.2 2 0.6 
1.25 2 0.6 1.3 2 0.6 1.35 2 0.6 
1.4 2 0.6 1.45 2 0.6 1.5 2 0.6 
1.55 2 0.6 1.6 2 0.6 1.65 2 0.6 
1.7 2 0.6 1.75 2 0.6 1.8 2 0.6 
1.85001 2 0.6 1.90003 2 0.6 1.95009 2 0.6 
2.00026 2 0.6 2.05065 2 0.6 2.10145 2 0.6 
2.1529 2 0.6 2.20513 2 0.6 2.25795 2 0.6 
2.31055 2 0.6 2.36165 2 0.6 2.41015 2 0.6 
2.45593 2 0.6 -3 2 0.6 -3 -2.16898 0.6 
-3 -2.21035 0.6 -3 -2.12474 0.6 -3 -2.07747 0.6 
-3 -2.02793 0.6 -3 -1.97728 0.6 -3 -1.92641 0.6 
-3 -1.87574 0.6 -3 -1.82534 0.6 -3 -1.77514 0.6 
-3 -1.72505 0.6 -3 -1.67502 0.6 -3 -1.625 0.6 
-3 -1.575 0.6 -3 -1.525 0.6 -3 -1.475 0.6 
-3 -1.425 0.6 -3 -1.375 0.6 -3 -1.325 0.6 
-3 -1.275 0.6 -3 -1.225 0.6 -3 -1.175 0.6 
-3 -1.125 0.6 -3 -1.075 0.6 -3 -1.025 0.6 
-3 -0.975 0.6 -3 -0.925 0.6 -3 -0.875 0.6 
-3 -0.825 0.6 -3 -0.775 0.6 -3 -0.725 0.6 
-3 -0.675 0.6 -3 -0.625 0.6 -3 -0.575 0.6 
-3 -0.525 0.6 -3 -0.475 0.6 -3 -0.425 0.6 
-3 -0.375 0.6 -3 -0.325 0.6 -3 -0.275 0.6 
-3 -0.224999 0.6 -3 -0.174996 0.6 -3 -0.124989 0.6 
-3 -0.0749742 0.6 -3 -0.0249448 0.6 -3 0.0751767 0.6 
-3 0.0550883 0.6 -3 0.0251048 0.6 -3 0.125264 0.6 
-3 0.175348 0.6 -3 0.187145 0.6 -3 0.225405 0.6 
-3 0.275415 0.6 -3 0.325377 0.6 -3 0.375304 0.6 
-3 0.42522 0.6 -3 0.475143 0.6 -3 0.525084 0.6 
-3 0.575045 0.6 -3 0.625022 0.6 -3 0.67501 0.6 
-3 0.725004 0.6 -3 0.775001 0.6 -3 0.824999 0.6 
-3 0.874997 0.6 -3 0.924994 0.6 -3 0.974987 0.6 
-3 1.02497 0.6 -3 1.07495 0.6 -3 1.17487 0.6 
-3 1.17283 0.6 -3 1.12492 0.6 -3 1.22482 0.6 
-3 1.27476 0.6 -3 1.32471 0.6 -3 1.37467 0.6 
-3 1.42466 0.6 -3 1.4747 0.6 -3 1.52483 0.6 
-3 1.57509 0.6 -3 1.62556 0.6 -3 1.6763 0.6 
-3 1.72722 0.6 -3 1.7618 0.6 -3 1.7779 0.6 
-3 1.82745 0.6 -3 1.87473 0.6 -3 1.91897 0.6 
-3 1.96035 0.6 -2.9551 -2.21053 0.6 2.4551 -2.21053 0.6 
2.4551 1.96053 0.6 -2.95443 -2.16881 0.6 -2.9551 1.96053 0.6 
-2.90805 1.961 0.6 -2.85844 1.96129 0.6 -2.95443 1.91881 0.6 
-2.95383 1.87385 0.6 -2.95345 1.8261 0.6 -2.95326 1.77662 0.6 
-2.95322 1.75529 0.6 -2.95317 1.72634 0.6 -2.95314 1.67583 0.6 
-2.95312 1.62538 0.6 -2.95311 1.57507 0.6 -2.9531 1.52488 0.6 
-2.9531 1.47478 0.6 -2.95309 1.42475 0.6 -2.95308 1.37476 0.6 
-2.95307 1.32479 0.6 -2.95306 1.27482 0.6 -2.95306 1.22487 0.6 
-2.95305 1.18604 0.6 -2.9949 1.17487 0.6 -2.95305 1.1749 0.6 
-2.95305 1.12494 0.6 -2.95305 1.07496 0.6 -2.95305 1.02498 0.6 
-2.95305 0.974988 0.6 -2.95305 0.924994 0.6 -2.95305 0.874998 0.6 
-2.95305 0.824999 0.6 -2.95305 0.775001 0.6 -2.95305 0.725004 0.6 
-2.95305 0.675009 0.6 -2.95305 0.62502 0.6 -2.95305 0.575039 0.6 
-2.95305 0.525071 0.6 -2.95305 0.475116 0.6 -2.95305 0.425172 0.6 
-2.95305 0.375233 0.6 -2.95305 0.325283 0.6 -2.95305 0.275309 0.6 
-2.95306 0.17526 0.6 -2.96868 0.175289 0.6 -2.95306 0.2253 0.6 
-2.80715 1.96138 0.6 2.40805 1.961 0.6 2.35844 1.96129 0.6 
2.30715 1.96138 0.6 2.25526 1.96133 0.6 2.20345 1.96123 0.6 
2.15202 1.96116 0.6 2.10106 1.9611 0.6 2.05051 1.96107 0.6 
[...]
POINT_DATA 6242
SCALARS p float
LOOKUP_TABLE default
0.531549 0.668642 0.694052 0.733196 0.763399 0.793949 0.822642 0.851172 0.879233 
0.90702 0.93443 0.961369 0.98776 1.01359 1.03878 1.0633 1.08714 1.11029 
1.13268 1.15428 1.17504 1.19493 1.21379 1.23175 1.24897 1.26527 1.27979 
1.29203 1.30152 1.30653 1.30796 1.29951 1.28318 1.16207 0.396772 0.381546 
0.37683 0.401461 0.413811 0.408773 0.393233 0.375943 0.359369 0.343536 0.328081 
0.312803 0.297667 0.282744 0.268047 0.253568 0.239349 0.22537 0.211521 0.197694 
0.183863 0.170041 0.156198 0.142337 0.128451 0.114617 0.100992 0.0883117 0.0769512 
0.069812 0.0651215 0.0588118 0.0380928 1.0704 1.10789 1.11448 1.09575 1.07684 
1.06244 1.04882 1.03415 1.01825 1.00124 0.983233 0.964363 0.944791 0.924542 
0.90359 0.88196 0.859731 0.836865 0.813259 0.788882 0.763774 0.737848 0.710946 
0.683047 0.654114 0.624053 0.592725 0.560556 0.526851 0.49343 0.457184 0.422408 
0.301148 0.0140556 0.00316082 -0.00268144 -0.000449048 0.00480131 0.010052 0.0144991 0.0179418 
0.0209509 0.0241835 0.0277576 0.0317811 0.0362434 0.0411044 0.0463498 0.0519963 0.0581126 
0.0647784 0.0720821 0.0801206 0.0889879 0.0987354 0.109307 0.120567 0.132712 0.145982 
0.158376 0.164343 0.161455 0.15361 0.166802 0.188607 0.468808 0.482693 0.486361 
0.483538 0.479063 0.474706 0.470127 0.464984 0.459255 0.453063 0.446597 0.439913 
0.432986 0.425823 0.418288 0.410303 0.401793 0.39271 0.38303 0.372751 0.361855 
0.350352 0.338222 0.325491 0.312135 0.298181 0.283594 0.268392 0.252496 0.235913 
0.218505 0.20025 0.181331 0.161865 0.141806 0.1214 0.100815 0.0800736 0.0590131 
0.0375958 0.0157656 -0.00644569 -0.0290744 -0.0521017 -0.0755657 -0.0994304 -0.123708 -0.148349 
-0.173352 -0.198656 -0.224294 -0.250251 -0.27656 -0.303195 -0.33019 -0.357518 -0.385209 
-0.413236 -0.441617 -0.470323 -0.499368 -0.528715 -0.558373 -0.588313 -0.61854 -0.649036 
-0.679804 -0.710791 -0.742003 -0.773414 -0.805025 -0.836791 -0.868692 -0.900709 -0.932816 
-0.965003 -0.997204 -1.02939 -1.0614 -1.09322 -1.12471 -1.15595 -1.18684 -1.21739 
-1.2475 -1.27711 -1.30614 -1.33449 -1.36204 -1.3887 -1.41434 -1.43885 -1.46206 
-1.48388 -1.50414 -1.52283 -1.53986 -1.55526 -1.56899 -1.58115 -1.59169 -1.60076 
-1.60823 -1.61403 -1.61797 -1.62017 -1.62062 -1.61996 -1.61914 0.459416 -1.61849 
-1.61886 -1.61968 -1.62121 -1.62352 -1.6273 -1.63284 -1.64058 -1.65021 -1.66166 
-1.67485 -1.68976 -1.70648 -1.72519 -1.72942 -1.74623 -1.76985 -1.79619 -1.82496 
-1.85546 -1.85548 -1.88584 -1.9142 -1.93898 -1.96063 -1.97982 -1.99777 -2.01402 
-2.02778 -2.03772 -2.04363 -2.04444 -2.04051 -2.03201 -2.01945 -2.00289 -1.98269 
-1.95896 -1.92095 -1.90137 -1.93182 -1.86724 -1.82919 -1.78656 -1.73946 -1.68905 
-1.63805 -1.588 -1.54003 -1.49423 -1.45067 -1.40901 -1.36918 -1.36913 -1.33086 
-1.29402 -1.25844 -1.22418 -1.19104 -1.15912 -1.12826 -1.09856 -1.06989 -1.04235 
-1.01581 -0.990369 -0.965916 -0.942496 -0.920022 -0.898533 -0.877949 -0.858308 -0.839551 
-0.821714 -0.80475 -0.788669 -0.773421 -0.759031 -0.745474 -0.732787 -0.720945 -0.710072 
-0.700314 -0.691855 -0.684385 -0.677259 -0.67074 -0.667149 -0.668491 -0.673749 -0.676781 
1.34597 1.34091 1.34578 1.34151 1.33912 1.3395 1.34276 1.34854 1.35591 
1.36459 1.37426 1.38472 1.39561 1.4066 1.41701 1.42637 1.4341 1.43995 
1.44349 1.44448 1.44278 1.43829 1.431 1.4211 1.40871 1.39397 1.37702 
1.3579 1.33667 1.31358 1.28871 1.26224 1.23425 1.2047 1.17378 1.14146 
1.10791 1.07339 1.0379 1.00169 0.964471 0.925761 0.885833 0.845304 0.804225 
0.762894 0.722071 0.682034 0.642583 0.603499 0.564705 0.52616 0.4879 0.449937 
0.4124 0.375354 0.338821 0.30269 0.266972 0.231617 0.196709 0.162264 0.128381 
0.0950401 0.0622605 0.0299797 -0.00177636 -0.0330374 -0.0637382 -0.093854 -0.123328 -0.152185 
-0.180387 -0.207968 -0.234883 -0.261165 -0.286724 -0.311565 -0.335646 -0.359017 -0.381628 
-0.403507 -0.424607 -0.444961 -0.464517 -0.483312 -0.501301 -0.518515 -0.534881 -0.550391 
-0.564998 -0.578734 -0.591539 -0.603428 -0.614362 -0.62436 -0.633406 -0.641565 -0.648891 
-0.65549 -0.661434 -0.66674 -0.670963 -0.673646 -0.67487 -0.676216 -0.678002 -0.678108 
-0.680522 1.33837 0.473511 0.45919 0.481094 0.480846 0.481142 0.482178 0.483768 
0.48608 0.489099 0.492754 0.496973 0.501742 0.50706 0.512858 0.519149 0.525932 
0.533201 0.540918 0.549044 0.557521 0.56631 0.575355 0.584622 0.594064 0.603652 
0.613329 0.623072 0.632831 0.642576 0.652212 0.661717 0.670979 0.679894 0.688367 
0.696468 0.704029 0.710664 0.715647 0.718148 0.71731 0.712611 0.703645 0.690358 
0.672719 0.651038 0.595253 0.607298 0.625276 0.559943 0.518427 0.507202 0.470791 
0.419541 0.368557 0.322476 0.283652 0.252948 0.230515 0.215308 0.20898 0.213032 
0.227224 0.251611 0.28513 0.324741 0.368963 0.416564 0.468442 0.525554 0.659568 
0.656673 0.588617 0.741492 0.833174 0.930043 1.02454 1.10603 1.1683 1.2123 
1.24446 1.27003 1.29023 1.30477 1.31051 1.31318 1.31667 1.31882 1.32347 
1.33252 0.468886 -1.61904 -0.681386 0.472099 1.32434 1.32703 1.32872 1.3224 
1.32163 1.31997 1.3149 1.3105 1.30452 1.28833 1.26692 1.24032 1.20706 
1.16215 1.10007 1.02017 0.928147 0.833669 0.743202 0.67879 0.66147 0.660319 
0.586559 0.519054 0.456808 0.399951 0.348391 0.301897 0.260821 0.226054 0.200551 
0.186586 0.183561 0.191475 0.208283 0.232256 0.264604 0.305248 0.353428 0.406291 
0.50774 0.508376 0.4591 1.32689 -0.680741 -0.680555 -0.679347 -0.677457 -0.675299 
-0.671897 -0.667279 -0.661729 -0.655589 -0.648782 -0.641204 -0.632785 -0.623469 -0.613221 
-0.602064 -0.58997 -0.576992 -0.563102 -0.548369 -0.532742 -0.516277 -0.498968 -0.480906 
-0.462033 -0.442412 -0.421995 -0.40085 -0.378926 -0.35629 -0.3329 -0.308813 -0.283959 
-0.258394 -0.232105 -0.205197 -0.177617 -0.149409 -0.120544 -0.0910715 -0.0609544 -0.0302376 
0.00105033 0.0328402 0.0651706 0.0979955 0.131379 0.165302 0.199796 0.234745 0.270152 
0.305915 0.342097 0.378662 0.415735 0.453303 0.491317 0.529624 0.568237 0.607123 
0.646319 0.685876 0.725972 0.766822 0.808208 0.849399 0.889974 0.929882 0.968616 
1.00585 1.04202 1.07749 1.11198 1.1455 1.17779 1.20867 1.23818 1.26614 
1.29254 1.31735 1.34033 1.36144 1.38039 1.39711 1.41156 1.4236 1.43305 
1.43983 1.44368 1.44465 1.44282 1.4383 1.43135 1.42242 1.41169 1.39975 
1.38705 1.37455 1.36298 1.35269 1.34382 1.33658 1.33103 1.32761 1.32629 
-1.61975 -1.62131 -1.6239 -1.62809 -1.63405 -1.64218 -1.65204 -1.66366 -1.67697 
-1.69195 -1.70872 -1.72742 -1.74038 -1.85764 -1.84701 -1.85779 -1.889 -1.91906 
-1.9463 -1.97067 -1.99187 -2.01007 -2.02479 -2.03556 -2.04219 -2.04518 -2.04386 
-2.03854 -2.02921 -2.01631 -1.99961 -1.9795 -1.95585 -1.92889 -1.90819 -0.80533 
-0.82223 -0.840033 -0.858782 -0.878428 -0.89904 -0.920555 -0.943073 -0.966536 -0.991051 
-1.01655 -1.04317 -1.0708 -1.09956 -1.12933 -1.16027 -1.19223 -1.22541 -1.25966 
-1.29521 -1.33196 -1.36919 -1.37019 -1.37632 -1.40983 -1.45125 -1.49453 -1.53999 
-1.58756 -1.63717 -1.68771 -1.73766 -1.7844 -1.82674 -1.86461 -1.89854 -1.827 
-1.79822 -1.77193 -1.74841 -0.789381 -0.774356 -0.760327 -0.747306 -0.735393 -0.72463 
-0.715113 -0.706896 -0.699907 -0.693569 -0.687145 -0.680923 -0.677556 -0.678407 0.476863 
0.47849 0.475391 0.47121 0.467594 0.464119 0.460242 0.45572 0.450544 0.444818 
0.438655 0.432073 0.425154 0.417784 0.409901 0.401459 0.392411 0.382756 0.37249 
0.361606 0.350111 0.337989 0.325264 0.311916 0.297976 0.283403 0.268217 0.25234 
0.235779 0.218392 0.200173 0.181254 0.161744 0.141668 0.121306 0.100759 0.0800396 
0.0589802 0.0375746 0.0157559 -0.00643132 -0.0290446 -0.0520562 -0.0755113 -0.0993591 -0.123623 
-0.148251 -0.173251 -0.198544 -0.224174 -0.250115 -0.276412 -0.303027 -0.330013 -0.357333 
-0.385022 -0.413038 -0.441408 -0.470104 -0.499145 -0.528488 -0.558141 -0.588065 -0.618272 
-0.648756 -0.679522 -0.710508 -0.74171 -0.773112 -0.804714 -0.836476 -0.868375 -0.900387 
-0.932483 -0.964671 -0.996885 -1.02909 -1.06114 -1.09302 -1.12458 -1.15593 -1.18691 
-1.21759 -1.24778 -1.27748 -1.30656 -1.33494 -1.36252 -1.38921 -1.41486 -1.43939 
-1.46262 -1.48445 -1.5047 -1.52338 -1.54038 -1.55576 -1.56946 -1.58158 -1.59205 
-1.60102 -1.60838 -1.61411 -1.61799 -1.62021 -1.6208 -1.62008 -1.62063 -0.677746 
-0.678633 -0.679454 -0.678428 -0.680829 -0.678944 -0.679287 -0.677689 -0.67784 -0.677842 
-0.683088 -0.678944 -0.680186 -0.685593 -0.680186 -0.677841 -0.685592 -0.685594 -0.675561 
-0.675272 -0.734225 -0.723498 -0.714193 -0.7062 -0.699425 -0.69312 -0.686893 -0.680186 
-0.691794 -0.697966 -0.688347 -0.697966 -0.697967 -0.685595 -0.693786 0.186374 0.139372 
0.186184 0.160626 0.160608 0.15903 0.160619 0.159032 0.165764 0.159034 0.186374 
0.170251 -0.687899 -0.678177 -0.67784 -0.672533 -0.675561 -0.680646 -0.672531 -0.672532 
-0.671699 -0.661668 -0.655665 -0.667144 -0.667956 -0.673649 -0.663022 -0.669047 -0.663022 
-0.67253 -0.663021 -0.656635 -0.66248 -0.650256 -0.650256 -0.66302 -0.650255 -0.655859 
-0.648939 -0.642201 -0.641389 -0.632947 -0.634011 -0.613283 -0.623602 -0.614149 -0.624229 
-0.628927 -0.61415 -0.618793 -0.614151 -0.63401 -0.638992 -0.634012 -0.650253 -0.634013 
-0.647456 -0.655859 -0.638992 -0.646755 -0.664169 -0.678043 -0.70518 -0.700835 -0.712706 
-0.697969 -0.712705 -0.712705 -0.708069 -0.722092 -0.717273 -0.726746 -0.732241 -0.732242 
-0.73224 -0.712708 -0.70132 -0.719325 -0.690783 -0.708139 -0.676303 -0.692966 -0.746176 
-0.744479 -0.751008 -0.757123 -0.757123 -0.732245 -0.757121 -0.73866 -0.759347 -0.74307 
-0.731168 -0.562979 -0.548249 -0.576929 -0.589922 -0.602091 -0.602581 -0.607019 -0.590679 
-0.595191 -0.618793 -0.614147 -0.590678 -0.59068 -0.577338 -0.56813 -0.595191 -0.581681 
-0.590676 -0.563682 -0.563684 -0.563682 -0.626186 -0.637363 -0.658374 -0.674245 -0.65244 
-0.498774 -0.516122 -0.499497 -0.516485 -0.532575 -0.533262 -0.548611 -0.552916 -0.563679 
-0.56813 -0.533265 -0.537667 -0.533263 -0.499498 -0.533259 -0.4995 -0.520809 -0.503911 
-0.537667 -0.627399 -0.61306 -0.602277 -0.786569 -0.788749 -0.80333 -0.804871 -0.771833 
-0.773523 -0.786568 -0.780228 -0.751008 -0.757126 -0.786566 -0.765326 -0.821977 -0.819987 
-0.786572 -0.780228 -0.819986 -0.813625 -0.819984 -0.796589 -0.839925 -0.838597 -0.857139 
-0.857137 -0.813625 -0.85714 -0.81999 -0.85088 -0.831873 -0.858859 -0.804942 -0.771897 
-0.841846 -0.878618 -0.877542 -0.87099 -0.891971 -0.898004 -0.898002 -0.857144 -0.898005 
-0.899404 -0.921014 -0.920204 -0.913953 -0.936958 -0.94266 -0.891971 -0.898009 -0.942659 
-0.942656 -0.943705 -0.882595 -1.04439 -1.01757 -0.991973 -0.967263 -0.966728 -0.960805 
-0.936958 -0.991267 -0.991272 -0.985892 -0.942664 -0.991271 -1.01729 -1.01158 -1.04395 
-0.985892 -1.04395 -0.991277 -1.04396 -1.0388 -1.07214 -1.29741 -1.26188 -1.22762 
-1.19431 -1.16223 -1.13106 -1.10114 -1.07205 -1.10087 -1.06629 -1.10086 -1.0388 
-1.04396 -1.10087 -1.09568 -1.13113 -1.12493 -1.15653 -1.16205 -1.09568 -1.16205 
-1.10088 -1.16204 -1.19449 -1.18746 -1.22739 -1.15653 -1.16205 -1.2274 -1.2274 
-1.22134 -1.26203 -1.29017 -1.22741 -1.29695 -1.22134 -1.29695 -1.25387 -1.29694 
-1.33409 -1.38072 -1.37221 -1.33401 -1.37123 -1.32423 -1.29017 -1.37123 -1.29696 
-1.37123 -1.36323 -1.41176 -1.37691 -1.41128 -1.451 -1.44053 -1.39865 -1.451 
-1.37691 -1.37123 -1.45101 -1.4529 -1.49585 -1.49449 -1.47697 -1.5367 -1.53672 
-1.52178 -1.53668 -1.45102 -1.54065 -1.53672 -1.58749 -1.58417 -1.60578 -1.62806 
-1.55847 -1.53676 -1.62803 -1.62809 -1.63591 -0.927244 -0.975825 -1.02835 -0.574978 
-0.585448 -0.520805 -0.554656 -0.533446 -0.567775 -0.510592 -0.544377 -0.503911 -0.481129 
-0.480745 -0.461841 -0.442244 -0.462588 -0.499494 -0.485459 -0.462589 -0.462592 -0.466965 
-0.446969 -0.422564 -0.442639 -0.466965 -0.422564 -0.422567 -0.462585 -0.426931 -0.421789 
-0.401089 -0.400674 -0.378725 -0.379542 -0.405435 -0.383897 -0.426931 -0.379546 -0.379543 
-0.42256 -0.356586 -0.356132 -0.332724 -0.333578 -0.360903 -0.333578 -0.337862 -0.379538 
-0.333582 -0.383897 -0.599131 -0.715073 -0.724514 -0.750538 -0.75659 -0.784221 -0.696441 
-0.72087 -0.672272 -0.695262 -0.741967 -0.759183 -0.773006 -0.791394 -0.827515 -0.80802 
-0.867534 -0.821911 -0.846997 -0.863545 -0.889898 -0.725086 -0.69491 -0.30914 -0.308672 
-0.283797 -0.284669 -0.313367 -0.337862 -0.333573 -0.288817 -0.28467 -0.284673 -0.258753 
-0.258259 -0.231952 -0.232858 -0.262855 -0.236819 -0.288817 -0.232859 -0.284664 -0.232863 
-0.205604 -0.205093 -0.120421 -0.149315 -0.12123 -0.149792 -0.177508 -0.178383 -0.232853 
-0.18197 -0.209447 -0.236819 -0.178384 -0.178388 -0.124437 -0.18197 -0.121231 -0.178378 
-0.121235 -0.153277 -0.0913933 -0.090968 -0.0608388 -0.0615865 -0.121225 -0.124437 -0.061587 
-0.0945371 -0.0615918 -0.064442 -0.390957 -0.43384 -0.473725 -0.484003 -0.444307 -0.496269 
-0.45637 -0.41378 -0.401716 -0.604017 -0.637718 -0.626353 -0.662007 -0.584298 -0.616633 
-0.646028 -0.668651 -0.689988 -0.549157 -0.567854 -0.588579 -0.651915 -0.611802 -1.0848 
-1.14508 -0.959268 -0.911455 -1.01096 -0.936646 -0.987156 -0.958093 -0.908995 -0.924041 
-0.876615 -0.832759 -0.792695 -0.884927 -0.839451 -1.20899 -1.27633 -1.18824 -1.12569 
-1.06649 -1.04133 -1.09898 -1.68517 -1.64136 -1.7208 -1.62815 -1.68943 -1.72078 
-1.72083 -1.67845 -1.73378 -1.57094 -1.49529 -1.42011 -1.34685 -1.46096 -1.39075 
-1.25364 -1.15973 -1.22299 -1.32136 -1.28801 -1.35395 -1.06648 -1.01067 -0.974796 
-1.0286 -0.463618 -0.507448 -0.483607 -0.527858 -0.444578 -0.488165 -0.427672 -0.470733 
-0.511273 -0.529273 -0.549001 -0.570422 -0.721933 -0.681213 -0.714481 -0.757893 -0.751702 
-0.797697 -0.75929 -0.797475 -0.638226 -0.668292 -0.702315 -0.792475 -0.740117 -1.03928 
-1.08506 -1.09528 -1.1436 -0.985192 -0.933609 -0.84097 -0.887335 -0.836284 -0.781099 
-0.824714 -0.882749 -0.936469 -1.12517 -1.18613 -0.870587 -0.931536 -0.988003 -1.90809 
-1.92197 -1.9274 -1.94893 -1.89728 -1.87814 -1.82094 -1.77941 -1.76953 -1.73326 
-1.76543 -1.80408 -1.80407 -1.72088 -1.80407 -1.84608 -1.85826 -1.89181 -1.87227 
-1.80169 -1.87227 -1.8041 -1.82891 -1.87227 -1.71187 -1.77002 -1.64452 -1.92739 
-1.85866 -1.9274 -1.87227 -1.88118 -1.81891 -1.97275 -1.9579 -2.03816 -2.04049 
-2.03869 -2.03301 -2.02333 -2.01012 -1.99308 -1.97042 -1.92741 -1.97042 -1.97041 
-1.92271 -1.89923 -1.85822 -1.95198 -1.88656 0.00115594 0.03293 -0.0301472 -0.0305498 
-0.0334479 0.000419259 -0.00220838 -0.064442 -0.0615809 0.000419697 0.000414133 0.0325455 0.0298036 
0.0645894 0.0621212 -0.00220838 0.0645952 0.0645948 0.000425504 0.0652894 0.0977737 0.0981066 
0.131526 0.130896 0.0951101 0.130896 0.0646012 0.128459 0.0621212 0.13089 -0.295894 
-0.243576 0.16516 0.165441 0.199964 0.199311 0.162366 0.199311 0.196671 0.128459 
0.130903 0.199305 0.23454 0.23486 0.270262 0.269519 -0.34501 -0.356153 -0.368441 
-0.38217 -0.129812 -0.188135 -0.140558 -0.199465 -0.255173 -0.307389 -0.268255 -0.320085 
-0.212696 -0.153671 -0.0918029 -0.0789849 -0.334021 -0.282612 -0.299364 -0.350498 -0.398697 
-0.417496 -0.43736 -0.369203 -0.263162 -0.318188 -0.283438 -0.338484 -0.244304 -0.227311 
-0.168133 -0.184913 -0.389233 -0.203376 -0.22317 -0.139371 -0.121871 -0.105792 -0.0276291 
-0.0411671 -0.0152633 -0.00602863 -0.0689815 0.058765 0.125218 0.117163 0.0502262 0.0384564 
0.105966 0.305949 0.34213 0.305574 0.341349 -0.504823 -0.549939 -0.527472 -0.574031 
-0.594261 -0.620996 -0.651219 -0.600632 -0.630439 -0.685292 -0.551731 -0.503809 -0.48049 
-0.578005 -0.528206 -0.458322 0.231433 0.199318 0.269519 0.269513 0.196671 0.266622 
0.266622 0.262825 0.193229 0.338269 0.302223 0.341343 0.341349 0.269526 0.174663 
0.185429 0.255227 0.244949 0.338269 0.334132 0.411592 0.407282 0.37471 0.41491 
0.341356 0.411592 0.37827 0.414909 0.414903 0.37864 0.415714 0.400602 0.326876 
0.317487 0.392637 0.0627506 -0.00458779 0.0487401 -0.0190269 0.076715 0.00993686 0.092253 
0.025025 -0.056511 -0.0725342 -0.0890192 -0.157946 -0.410342 -0.359817 -0.304832 -0.244268 
-0.327466 -0.266861 -0.479307 -0.455637 -0.432528 -0.382216 -0.351434 -0.291307 -0.405606 
-1.04139 -0.98217 -1.20341 -1.15242 -1.41985 -1.48446 -1.53058 -1.3114 -1.37367 
-1.24853 -1.26349 -1.43419 -1.37998 -1.32272 -1.32049 -1.2661 -1.06504 -1.13691 
-1.11196 -1.18619 -1.01649 -1.08583 -0.96725 -1.03392 -0.918314 -0.722923 -1.52885 
-1.59185 -1.56784 -1.63269 -1.48406 -1.54458 -1.43412 -1.49163 -1.5461 -1.59768 
-1.65947 -1.60283 -1.71365 -1.65311 -1.69615 -1.75941 -1.73132 -1.66647 -1.9026 
-1.9674 -1.90599 -1.9686 -2.00035 -2.00036 -1.95969 -1.95198 -2.01589 -2.01587 
-2.0181 -2.00034 -2.01589 -1.99501 -1.97043 -1.9359 -2.00035 -2.02605 -2.01615 
-1.9674 -2.01616 -2.01589 -2.01617 -1.96667 -2.0321 -2.01845 -1.96008 -1.95663 
-2.00164 -2.00167 -2.01617 -2.00166 -2.02217 -1.84554 -1.83996 -1.60046 -1.62623 
-1.69259 -1.75793 -1.79628 -1.82344 -1.71055 -1.64474 -1.77524 -1.72009 -1.78297 
-1.84099 -1.7816 -1.91009 -1.91737 -1.87835 -1.88804 -1.93038 -1.94425 -1.95871 
-1.96866 -1.97253 -1.99021 -1.99567 -2.0079 -1.94107 -1.93301 -2.00166 -1.97251 
-1.97255 -1.9304 -1.91084 -1.97253 -1.89867 -1.93036 -1.8528 -1.87975 -1.85479 
-1.8185 -1.87836 -1.87834 -1.93037 -1.87048 -1.89784 -1.69458 -1.71175 -1.7305 
-1.74366 -1.84879 -1.85798 -1.85351 -1.82452 -1.8228 -1.87834 -1.8228 -1.84915 
-1.80707 -1.8228 -1.8282 -1.80047 -1.79856 -1.77928 -1.76209 -1.77217 -1.77217 
-1.8228 -1.79856 -1.77217 -1.77466 -1.7516 -1.75101 -1.73791 -1.72908 -1.72908 
-1.73452 -1.77217 -1.72194 -1.72908 -1.71124 -1.69316 -1.70133 -1.69316 -1.72908 
-1.69316 -1.68709 -1.67936 -1.62183 -1.62448 -1.62879 -1.63504 -1.64364 -1.65375 
-1.66561 -1.67855 -1.66408 -1.69316 -1.67049 -1.66409 -1.66408 -1.65864 -1.65279 
-1.64629 -1.64223 -1.64222 -1.64222 -1.66408 -1.63724 -1.63409 -1.6297 -1.6279 
-1.6279 -1.6279 -1.62416 -1.64222 -1.62407 -1.6184 -1.6205 -1.62051 -1.6184 
-1.62407 -1.6184 -1.62168 -1.6279 -1.62103 -1.62013 -1.61784 -1.61416 -1.23511 
-1.3151 -1.26835 -1.34978 -1.19764 -1.27594 -1.1564 -1.23278 -1.25583 -1.3047 
-1.20408 -1.15042 -1.09585 -1.20971 -0.851104 -0.806344 -0.611573 -0.674207 -0.644591 
-0.712184 -0.581448 -0.638969 -0.553882 -0.606916 -0.663841 -0.700613 -0.763459 -0.74019 
-0.781909 -0.582223 -0.554255 -1.7215 -1.6558 -1.65959 -1.37186 -1.41928 -1.3499 
-1.46201 -1.39079 -1.42684 -1.49944 -0.897115 -0.753757 -0.832573 -0.789444 -0.871242 
-0.716935 -0.792502 -0.680093 -0.751997 -0.824983 -0.86852 -0.943539 -0.911561 -0.989428 
-1.03383 -0.953166 -0.429396 -0.376189 -0.317446 -0.251809 -0.224179 -0.710408 -0.677909 
-0.644867 -0.612561 -0.5255 -0.551517 -0.5008 -0.476811 -0.528214 -0.453121 -0.503409 
-0.400757 -0.424644 -0.34394 -0.369337 0.303833 0.380374 0.230684 0.452752 0.453189 
0.491157 0.490169 0.448896 0.490168 0.414917 0.490162 0.486603 0.528733 0.529331 
0.567908 0.566876 0.606758 0.646073 0.645385 0.606211 0.645378 0.566875 0.566883 
0.563585 0.645384 0.603157 0.642977 0.524933 0.563585 0.486603 0.566869 0.490176 
0.559923 0.482438 0.642977 0.639967 0.722037 0.724571 0.685665 0.685776 0.72606 
0.726003 0.726003 0.645392 0.683628 0.724571 0.725996 0.160523 0.143889 0.212802 
0.285303 0.362115 0.195523 0.265472 0.128878 0.11309 0.17691 -1.18243 -1.15079 
-1.11511 -1.07594 -0.992618 -1.02942 -1.45762 -1.37957 -1.5311 -1.48277 -1.55659 
-1.40413 -1.29694 -1.32057 -0.907884 -0.823344 -0.855276 -0.94218 -0.973895 -0.885223 
-1.06312 -1.09311 -1.20961 -1.58787 -1.57558 -1.50199 -1.51508 -1.59355 -1.33901 
-1.4232 -1.35206 -1.43658 -1.44413 -1.35957 -1.77913 -1.8065 -1.82761 -1.77222 
-1.65659 -1.71555 -1.7562 -1.70355 -1.73495 -1.68695 -1.78061 -1.74318 -1.70794 
-1.67596 -1.62076 -1.65687 -1.59646 -1.63035 -1.64489 -1.68397 -1.66709 -1.71029 
-1.74832 -1.71686 -1.686 -1.65695 -1.64779 -1.63463 -1.61825 -1.59898 -1.5771 
-1.55509 -1.52482 -1.54463 -1.64915 -1.62865 -1.6321 -1.61576 -1.60944 -1.6184 
-1.61483 -1.60944 -1.62003 -1.60944 -1.60025 -1.61276 -1.60752 -1.58974 -1.57592 
-1.58659 -1.59289 -1.52203 -1.52299 -1.51851 -1.50965 -1.43502 -1.4426 0.470336 
0.476552 0.554834 0.550204 0.318358 0.33474 0.302235 0.28649 0.271208 0.256278 
0.241657 0.22736 0.213357 0.199493 0.185663 0.171872 0.158133 0.144392 0.130643 