# vtk DataFile Version 5.1
vtk output
ASCII
DATASET POLYDATA
POINTS 5017 float
-2.95593 -2.25 1.1 -2.91015 -2.25 1.1 -2.86164 -2.25 1.1 
-2.81054 -2.25 1.1 -2.75794 -2.25 1.1 -2.70512 -2.25 1.1 
-2.65289 -2.25 1.1 -2.60145 -2.25 1.1 -2.55065 -2.25 1.1 
-2.50026 -2.25 1.1 -2.45009 -2.25 1.1 -2.40003 -2.25 1.1 
-2.35001 -2.25 1.1 -2.3 -2.25 1.1 -2.25 -2.25 1.1 
-2.2 -2.25 1.1 -2.15 -2.25 1.1 -2.1 -2.25 1.1 
-2.05 -2.25 1.1 -2 -2.25 1.1 -1.95 -2.25 1.1 
-1.9 -2.25 1.1 -1.85 -2.25 1.1 -1.8 -2.25 1.1 
-1.75 -2.25 1.1 -1.7 -2.25 1.1 -1.65 -2.25 1.1 
-1.6 -2.25 1.1 -1.55 -2.25 1.1 -1.5 -2.25 1.1 
-1.45 -2.25 1.1 -1.4 -2.25 1.1 -1.35 -2.25 1.1 
-1.3 -2.25 1.1 -1.25 -2.25 1.1 -1.2 -2.25 1.1 
-1.15 -2.25 1.1 -1.1 -2.25 1.1 -1.05 -2.25 1.1 
-1 -2.25 1.1 -0.95 -2.25 1.1 -0.9 -2.25 1.1 
-0.85 -2.25 1.1 -0.8 -2.25 1.1 -0.75 -2.25 1.1 
-0.7 -2.25 1.1 -0.65 -2.25 1.1 -0.6 -2.25 1.1 
-0.55 -2.25 1.1 -0.5 -2.25 1.1 -0.45 -2.25 1.1 
-0.4 -2.25 1.1 -0.35 -2.25 1.1 -0.3 -2.25 1.1 
-0.25 -2.25 1.1 -0.2 -2.25 1.1 -0.15 -2.25 1.1 
-0.1 -2.25 1.1 -0.0499997 -2.25 1.1 4.1863e-07 -2.25 1.1 
0.0500003 -2.25 1.1 0.0999999 -2.25 1.1 0.15 -2.25 1.1 
0.2 -2.25 1.1 0.25 -2.25 1.1 0.3 -2.25 1.1 
0.35 -2.25 1.1 0.4 -2.25 1.1 0.45 -2.25 1.1 
0.5 -2.25 1.1 0.55 -2.25 1.1 0.6 -2.25 1.1 
0.65 -2.25 1.1 0.7 -2.25 1.1 0.75 -2.25 1.1 
0.8 -2.25 1.1 0.85 -2.25 1.1 0.9 -2.25 1.1 
0.95 -2.25 1.1 1 -2.25 1.1 1.05 -2.25 1.1 
1.1 -2.25 1.1 1.15 -2.25 1.1 1.2 -2.25 1.1 
1.25 -2.25 1.1 1.3 -2.25 1.1 1.35 -2.25 1.1 
1.4 -2.25 1.1 1.45 -2.25 1.1 1.5 -2.25 1.1 
1.55 -2.25 1.1 1.6 -2.25 1.1 1.65 -2.25 1.1 
1.7 -2.25 1.1 1.75 -2.25 1.1 1.8 -2.25 1.1 
1.85001 -2.25 1.1 1.90003 -2.25 1.1 1.95009 -2.25 1.1 
2.00026 -2.25 1.1 2.05065 -2.25 1.1 2.10145 -2.25 1.1 
2.15289 -2.25 1.1 2.20512 -2.25 1.1 2.25794 -2.25 1.1 
2.31054 -2.25 1.1 2.36164 -2.25 1.1 2.41015 -2.25 1.1 
2.45593 -2.25 1.1 2.5 -2.25 1.1 -3 -2.25 1.1 
2.5 -2.21035 1.1 2.5 -2.16898 1.1 2.5 -2.12474 1.1 
2.5 -2.07746 1.1 2.5 -2.02793 1.1 2.5 -1.97728 1.1 
2.5 -1.92641 1.1 2.5 -1.87574 1.1 2.5 -1.87562 1.1 
2.5 -1.82536 1.1 2.5 -1.77519 1.1 2.5 -1.72517 1.1 
2.5 -1.67528 1.1 2.5 -1.62552 1.1 2.5 -1.57596 1.1 
2.5 -1.52666 1.1 2.5 -1.47773 1.1 2.5 -1.4292 1.1 
2.5 -1.38099 1.1 2.5 -1.38096 1.1 2.5 -0.18096 1.1 
2.5 -0.129298 1.1 2.5 -0.0779019 1.1 2.5 -0.0268527 1.1 
2.5 0.023892 1.1 2.5 0.0743837 1.1 2.5 0.124683 1.1 
2.5 0.174851 1.1 2.5 0.224936 1.1 2.5 0.274975 1.1 
2.5 0.324991 1.1 2.5 0.374998 1.1 2.5 0.424999 1.1 
2.5 0.475 1.1 2.5 0.525 1.1 2.5 0.575 1.1 
2.5 0.625 1.1 2.5 0.675 1.1 2.5 0.725 1.1 
2.5 0.775 1.1 2.5 0.825 1.1 2.5 0.875 1.1 
2.5 0.925 1.1 2.5 0.975 1.1 2.5 1.025 1.1 
2.5 1.075 1.1 2.5 1.125 1.1 2.5 1.175 1.1 
2.5 1.225 1.1 2.5 1.275 1.1 2.5 1.325 1.1 
2.5 1.375 1.1 2.5 1.42502 1.1 2.5 1.47505 1.1 
2.5 1.52514 1.1 2.5 1.57533 1.1 2.5 1.62573 1.1 
2.5 1.67641 1.1 2.5 1.72728 1.1 2.5 1.77793 1.1 
2.5 1.82746 1.1 2.5 1.87474 1.1 2.5 1.91898 1.1 
2.5 1.96035 1.1 2.5 2 1.1 -2.91015 2 1.1 
-2.95593 2 1.1 -2.86164 2 1.1 -2.81054 2 1.1 
-2.75794 2 1.1 -2.70512 2 1.1 -2.65289 2 1.1 
-2.60145 2 1.1 -2.55065 2 1.1 -2.50026 2 1.1 
-2.45009 2 1.1 -2.40003 2 1.1 -2.35001 2 1.1 
-2.3 2 1.1 -2.25 2 1.1 -2.2 2 1.1 
-2.15 2 1.1 -2.1 2 1.1 -2.05 2 1.1 
-2 2 1.1 -1.95 2 1.1 -1.9 2 1.1 
-1.85 2 1.1 -1.8 2 1.1 -1.75 2 1.1 
-1.7 2 1.1 -1.65 2 1.1 -1.6 2 1.1 
-1.55 2 1.1 -1.5 2 1.1 -1.45 2 1.1 
-1.4 2 1.1 -1.35 2 1.1 -1.3 2 1.1 
-1.25 2 1.1 -1.2 2 1.1 -1.15 2 1.1 
-1.1 2 1.1 -1.05 2 1.1 -1 2 1.1 
-0.95 2 1.1 -0.9 2 1.1 -0.85 2 1.1 
-0.8 2 1.1 -0.75 2 1.1 -0.7 2 1.1 
-0.65 2 1.1 -0.6 2 1.1 -0.55 2 1.1 
-0.5 2 1.1 -0.45 2 1.1 -0.4 2 1.1 
-0.35 2 1.1 -0.3 2 1.1 -0.25 2 1.1 
-0.2 2 1.1 -0.15 2 1.1 -0.1 2 1.1 
-0.0500001 2 1.1 1.71984e-07 2 1.1 0.0500002 2 1.1 
0.0999999 2 1.1 0.15 2 1.1 0.2 2 1.1 
0.25 2 1.1 0.3 2 1.1 0.35 2 1.1 
0.4 2 1.1 0.45 2 1.1 0.5 2 1.1 
0.55 2 1.1 0.6 2 1.1 0.65 2 1.1 
0.7 2 1.1 0.75 2 1.1 0.8 2 1.1 
0.85 2 1.1 0.9 2 1.1 0.95 2 1.1 
1 2 1.1 1.05 2 1.1 1.1 2 1.1 
1.15 2 1.1 1.2 2 1.1 1.25 2 1.1 
1.3 2 1.1 1.35 2 1.1 1.4 2 1.1 
1.45 2 1.1 1.5 2 1.1 1.55 2 1.1 
1.6 2 1.1 1.65 2 1.1 1.7 2 1.1 
1.75 2 1.1 1.8 2 1.1 1.85001 2 1.1 
1.90003 2 1.1 1.95009 2 1.1 2.00026 2 1.1 
2.05065 2 1.1 2.10145 2 1.1 2.15289 2 1.1 
2.20512 2 1.1 2.25794 2 1.1 2.31054 2 1.1 
2.36164 2 1.1 2.41015 2 1.1 2.45593 2 1.1 
-3 2 1.1 -3 -2.16898 1.1 -3 -2.21035 1.1 
-3 -2.12474 1.1 -3 -2.07746 1.1 -3 -2.02793 1.1 
-3 -1.97728 1.1 -3 -1.92641 1.1 -3 -1.87573 1.1 
-3 -1.82533 1.1 -3 -1.77514 1.1 -3 -1.72505 1.1 
-3 -1.67502 1.1 -3 -1.625 1.1 -3 -1.575 1.1 
-3 -1.525 1.1 -3 -1.475 1.1 -3 -1.425 1.1 
-3 -1.375 1.1 -3 -1.325 1.1 -3 -1.275 1.1 
-3 -1.225 1.1 -3 -1.175 1.1 -3 -1.125 1.1 
-3 -1.075 1.1 -3 -1.025 1.1 -3 -0.975 1.1 
-3 -0.925 1.1 -3 -0.875 1.1 -3 -0.825 1.1 
-3 -0.775 1.1 -3 -0.725 1.1 -3 -0.675 1.1 
-3 -0.625 1.1 -3 -0.575 1.1 -3 -0.525 1.1 
-3 -0.475 1.1 -3 -0.425 1.1 -3 -0.375002 1.1 
-3 -0.325008 1.1 -3 -0.275026 1.1 -3 -0.274907 1.1 
-3 -0.225075 1.1 -3 -0.17519 1.1 -3 -0.125436 1.1 
-3 -0.0759169 1.1 -3 -0.0267696 1.1 -3 0.0218416 1.1 
-3 0.0697566 1.1 -3 0.11687 1.1 -3 0.163225 1.1 
-3 0.2091 1.1 -3 0.209078 1.1 -3 1.46328 1.1 
-3 1.4091 1.1 -3 1.51699 1.1 -3 1.57005 1.1 
-3 1.62253 1.1 -3 1.67461 1.1 -3 1.72635 1.1 
-3 1.77749 1.1 -3 1.82727 1.1 -3 1.87466 1.1 
-3 1.91895 1.1 -3 1.96034 1.1 -3 0.209104 1.1 
-3 0.263755 1.1 -3 0.317686 1.1 -3 0.37059 1.1 
-3 0.422524 1.1 -3 0.473705 1.1 -3 0.524372 1.1 
-3 0.490554 1.1 -3 0.574719 1.1 -3 0.624885 1.1 
-3 0.674957 1.1 -3 0.724986 1.1 -3 0.774995 1.1 
-3 0.824994 1.1 -3 0.874984 1.1 -3 0.924954 1.1 
-3 0.974882 1.1 -3 1.02472 1.1 -3 1.0744 1.1 
-3 1.1238 1.1 -3 1.1728 1.1 -3 1.22125 1.1 
-3 1.26907 1.1 -3 1.31622 1.1 -3 1.36281 1.1 
2.5 -1.38096 1.1 2.5 -1.3288 1.1 2.5 -1.2771 1.1 
2.5 -1.22598 1.1 2.5 -1.17537 1.1 2.5 -1.12509 1.1 
2.5 -1.10843 1.1 2.5 -1.07499 1.1 2.5 -1.02497 1.1 
2.5 -0.974976 1.1 2.5 -0.924986 1.1 2.5 -0.874994 1.1 
2.5 -0.824998 1.1 2.5 -0.775001 1.1 2.5 -0.725005 1.1 
2.5 -0.675016 1.1 2.5 -0.625042 1.1 2.5 -0.575099 1.1 
2.5 -0.525213 1.1 2.5 -0.475423 1.1 2.5 -0.425778 1.1 
2.5 -0.376329 1.1 2.5 -0.327121 1.1 2.5 -0.278187 1.1 
2.5 -0.229496 1.1 -2.95509 -2.21053 1.1 2.45509 -2.21053 1.1 
2.45509 1.96053 1.1 -2.95443 -2.16881 1.1 -2.9551 1.96053 1.1 
-2.90805 1.961 1.1 -2.85844 1.96128 1.1 -2.95443 1.91878 1.1 
-2.95383 1.87379 1.1 -2.95346 1.82596 1.1 -2.95328 1.77632 1.1 
-2.95321 1.72572 1.1 -2.95321 1.67466 1.1 -2.95324 1.6233 1.1 
-2.95327 1.57165 1.1 -2.9533 1.51969 1.1 -2.95327 1.46764 1.1 
-2.95304 1.41655 1.1 -2.95286 1.3673 1.1 -2.95289 1.31914 1.1 
-2.95294 1.27094 1.1 -2.95297 1.2224 1.1 -2.953 1.17345 1.1 
-2.95301 1.12413 1.1 -2.95303 1.07455 1.1 -2.95303 1.02478 1.1 
-2.95304 0.974903 1.1 -2.95304 0.92496 1.1 -2.95305 0.874984 1.1 
-2.95305 0.824993 1.1 -2.95305 0.774994 1.1 -2.95305 0.724987 1.1 
-2.95305 0.674965 1.1 -2.95306 0.624911 1.1 -2.95307 0.574794 1.1 
-2.9531 0.524552 1.1 -2.97663 0.473898 1.1 -2.95314 0.474091 1.1 
-2.95315 0.465602 1.1 -2.9532 0.423276 1.1 -2.95331 0.371963 1.1 
-2.95344 0.320108 1.1 -2.95352 0.267993 1.1 -2.99999 0.209101 1.1 
-2.95329 0.216873 1.1 -2.95302 0.167732 1.1 -2.80714 1.96138 1.1 
2.40804 1.961 1.1 2.35844 1.96128 1.1 2.30714 1.96138 1.1 
2.25525 1.96132 1.1 2.20344 1.96123 1.1 2.15201 1.96115 1.1 
2.10106 1.9611 1.1 2.05051 1.96106 1.1 2.00022 1.96104 1.1 
1.95009 1.96103 1.1 1.90003 1.96102 1.1 1.85001 1.96102 1.1 
1.8 1.96102 1.1 1.75 1.96102 1.1 1.7 1.96102 1.1 
1.65 1.96102 1.1 1.6 1.96102 1.1 1.55 1.96102 1.1 
1.5 1.96102 1.1 1.45 1.96102 1.1 1.4 1.96102 1.1 
1.35 1.96102 1.1 1.3 1.96102 1.1 1.25 1.96102 1.1 
1.2 1.96102 1.1 1.15 1.96102 1.1 1.1 1.96102 1.1 
1.05 1.96102 1.1 1 1.96102 1.1 0.95 1.96102 1.1 
0.9 1.96102 1.1 0.85 1.96102 1.1 0.8 1.96102 1.1 
0.75 1.96102 1.1 0.7 1.96102 1.1 0.65 1.96102 1.1 
0.6 1.96102 1.1 0.55 1.96102 1.1 0.5 1.96102 1.1 
0.45 1.96102 1.1 0.4 1.96102 1.1 0.35 1.96102 1.1 
0.3 1.96102 1.1 0.25 1.96102 1.1 0.2 1.96102 1.1 
0.15 1.96102 1.1 0.1 1.96102 1.1 0.05 1.96102 1.1 
4.39479e-08 1.96102 1.1 -0.05 1.96102 1.1 -0.1 1.96102 1.1 
-0.15 1.96102 1.1 -0.2 1.96102 1.1 -0.25 1.96102 1.1 
-0.3 1.96102 1.1 -0.35 1.96102 1.1 -0.4 1.96102 1.1 
-0.45 1.96102 1.1 -0.5 1.96102 1.1 -0.55 1.96102 1.1 
-0.6 1.96102 1.1 -0.65 1.96102 1.1 -0.7 1.96102 1.1 
-0.75 1.96102 1.1 -0.8 1.96102 1.1 -0.85 1.96102 1.1 
-0.9 1.96102 1.1 -0.95 1.96102 1.1 -1 1.96102 1.1 
-1.05 1.96102 1.1 -1.1 1.96102 1.1 -1.15 1.96102 1.1 
-1.2 1.96102 1.1 -1.25 1.96102 1.1 -1.3 1.96102 1.1 
-1.35 1.96102 1.1 -1.4 1.96102 1.1 -1.45 1.96102 1.1 
-1.5 1.96102 1.1 -1.55 1.96102 1.1 -1.6 1.96102 1.1 
-1.65 1.96102 1.1 -1.7 1.96102 1.1 -1.75 1.96102 1.1 
-1.8 1.96102 1.1 -1.85 1.96102 1.1 -1.9 1.96102 1.1 
-1.95 1.96102 1.1 -2 1.96102 1.1 -2.05 1.96102 1.1 
-2.1 1.96102 1.1 -2.15 1.96102 1.1 -2.2 1.96102 1.1 
-2.25 1.96102 1.1 -2.3 1.96102 1.1 -2.35001 1.96102 1.1 
-2.40003 1.96102 1.1 -2.45009 1.96103 1.1 -2.50022 1.96104 1.1 
-2.55051 1.96106 1.1 -2.60106 1.9611 1.1 -2.65201 1.96115 1.1 
-2.70344 1.96123 1.1 -2.75525 1.96132 1.1 2.45319 -1.82527 1.1 
2.45308 -1.82515 1.1 2.45306 -1.77515 1.1 2.45305 -1.72514 1.1 
2.45305 -1.6752 1.1 2.45305 -1.62537 1.1 2.45305 -1.57565 1.1 
2.45304 -1.52612 1.1 2.45304 -1.47677 1.1 2.45306 -1.42751 1.1 
2.45319 -1.37781 1.1 2.49999 -1.38096 1.1 2.45329 -1.32727 1.1 
2.45324 -1.27638 1.1 2.45316 -1.22567 1.1 2.4531 -1.17525 1.1 
2.47659 -1.12507 1.1 2.45307 -1.13344 1.1 2.45305 0.775 1.1 
2.45305 0.725 1.1 2.45305 0.675 1.1 2.45305 0.625 1.1 
2.45305 0.575 1.1 2.45305 0.525 1.1 2.45305 0.475 1.1 
2.45305 0.424999 1.1 2.45305 0.374997 1.1 2.45305 0.324992 1.1 
2.45305 0.274979 1.1 2.45305 0.22495 1.1 2.45306 0.174891 1.1 
2.45306 0.124777 1.1 2.45307 0.0745777 1.1 2.45308 0.0242542 1.1 
2.45309 -0.0262322 1.1 2.45308 -0.0768974 1.1 2.45305 -0.127663 1.1 
2.45295 -0.178125 1.1 2.4529 -0.227862 1.1 2.45294 -0.277152 1.1 
2.45298 -0.326468 1.1 2.45301 -0.375933 1.1 2.45302 -0.425555 1.1 
2.45303 -0.475309 1.1 2.45304 -0.52516 1.1 2.45304 -0.575077 1.1 
[...]
CELL_DATA 3642
SCALARS p float
LOOKUP_TABLE default
-4.12428 -4.11759 -4.11769 -4.12252 -4.12755 -4.13189 -4.13687 -4.14247 -4.14876 
-4.15518 -4.16182 -4.16847 -4.17542 -4.18232 -4.18982 -4.19744 -4.2059 -4.21469 
-4.22439 -4.23442 -4.24538 -4.25662 -4.2688 -4.28122 -4.29463 -4.30824 -4.32294 
-4.33779 -4.35404 -4.37052 -4.38826 -4.40633 -4.42583 -4.44497 -4.46499 -4.48452 
-4.50524 -4.52555 -4.54719 -4.56834 -4.59088 -4.61284 -4.63625 -4.65906 -4.68337 
-4.70698 -4.73214 -4.75655 -4.78257 -4.80775 -4.83458 -4.86049 -4.88807 -4.91462 
-4.94296 -4.97027 -4.99945 -5.02754 -5.05756 -5.08643 -5.11724 -5.14684 -5.17843 
-5.20878 -5.24115 -5.27218 -5.30527 -5.33696 -5.37077 -5.40309 -5.43752 -5.47052 
-5.50556 -5.53913 -5.57456 -5.60848 -5.64408 -5.67824 -5.71393 -5.74832 -5.78407 
-5.81836 -5.85384 -5.8877 -5.92256 -5.95566 -5.9896 -6.02156 -6.05397 -6.08413 
-6.11416 -6.14158 -6.16839 -6.19234 -6.21528 -6.23517 -6.25396 -6.26988 -6.28466 
-6.29686 -6.30782 -6.31629 -6.32289 -6.32667 -6.32834 -6.32825 -6.32672 -6.32536 
-6.32434 -4.13668 -6.32386 -6.32741 -6.33273 -6.3414 -6.35468 -6.37308 -6.39907 
-6.43132 -6.93001 -6.97547 -7.03411 -7.11167 -7.21806 -7.36311 -7.59885 -7.91883 
-8.60232 -9.08009 -9.70809 -9.22549 -8.05651 -7.34264 -6.9641 -6.69292 -6.50626 
-6.36615 -6.25429 -6.16531 -6.08773 -6.0232 -5.96371 -5.91261 -5.86364 -5.82049 
-5.77852 -5.74096 -5.70413 -5.67097 -5.63839 -5.60883 -5.5798 -5.5534 -5.5275 
-5.50385 -5.48075 -5.45959 -5.43893 -5.41995 -5.40146 -5.38441 -5.3678 -5.35246 
-5.33765 -5.32421 -5.31189 -5.30202 -5.29418 -5.28715 -5.27747 -5.26833 -5.2702 
-5.27951 -6.32434 -5.29365 -3.38226 -3.41225 -3.45795 -3.47772 -3.46548 -3.42066 
-3.36143 -3.30027 -3.24516 -3.19389 -3.14909 -3.10565 -3.0685 -3.0335 -3.00641 
-2.98248 -2.96729 -2.95574 -2.95254 -2.95238 -2.96034 -2.97015 -2.98713 -3.00494 
-3.02886 -3.05292 -3.08193 -3.11023 -3.14243 -3.17385 -3.20904 -3.24275 -3.28001 
-3.31563 -3.35457 -3.39218 -3.43265 -3.47199 -3.51446 -3.55659 -3.60131 -3.64388 
-3.68905 -3.73158 -3.7755 -3.8165 -3.85944 -3.89991 -3.94223 -3.98211 -4.02369 
-4.06289 -4.10366 -4.14211 -4.18195 -4.21945 -4.25826 -4.29488 -4.33275 -4.36856 
-4.40549 -4.44035 -4.47617 -4.50993 -4.54452 -4.57713 -4.61048 -4.64192 -4.67398 
-4.70418 -4.73486 -4.76367 -4.79286 -4.8203 -4.84803 -4.87409 -4.90026 -4.92475 
-4.94928 -4.97228 -4.99526 -5.01681 -5.03823 -5.05822 -5.07796 -5.09634 -5.11439 
-5.13112 -5.1474 -5.16241 -5.17686 -5.19009 -5.20269 -5.21406 -5.22463 -5.23396 
-5.24255 -5.25007 -5.25693 -5.2627 -5.26736 -5.27064 -5.272 -5.27317 -5.27389 
-5.2727 -5.29654 -5.31288 -3.37617 -5.30544 -4.16151 -4.16656 -4.13241 -4.10818 
-4.11558 -4.11969 -4.12001 -4.11889 -4.11639 -4.11299 -4.10878 -4.104 -4.09856 
-4.09272 -4.08638 -4.0798 -4.07285 -4.06576 -4.05838 -4.05096 -4.0434 -4.03597 
-4.02845 -4.02116 -4.01389 -4.00711 -4.00035 -3.99422 -3.98805 -3.98269 -3.97767 
-3.97429 -3.97197 -3.97234 -3.9747 -3.98239 -3.99601 -4.02191 -4.06337 -4.12706 
-4.66128 -4.75956 -4.88115 -5.02067 -5.15288 -5.2791 -5.42835 -5.67377 -5.99561 
-5.90119 -6.51263 -4.53534 -3.94541 -3.90693 -3.82269 -3.73705 -3.65213 -3.56785 
-3.49838 -3.45274 -3.42344 -3.39592 -3.37617 -4.14847 -6.37553 -6.86807 -6.86697 
-6.86743 -6.8685 -6.86934 -6.37945 -6.37951 -6.86973 -6.3794 -6.37926 -6.37917 
-6.37911 -6.37908 -6.37908 -6.37913 -6.37923 -6.3794 -6.37978 -6.38065 -6.38268 
-6.38688 -6.39499 -6.40904 -6.42945 -6.39146 -14.5654 -15.0511 -15.0501 -15.0504 
-15.0514 -15.0521 -14.5687 -14.5687 -15.0525 -14.5685 -14.5683 -14.5682 -14.5681 
-14.5682 -14.5683 -14.5685 -14.5686 -14.5688 -14.5692 -14.57 -14.5719 -14.5758 
-14.5836 -14.5974 -14.6177 -14.6397 -4.13206 -6.32428 -5.28932 -4.14651 -3.41933 
-3.462 -3.43619 -3.44354 -3.46671 -3.49136 -3.5335 -3.59961 -3.68074 -3.76022 
-3.83933 -3.91619 -3.94259 -4.52 -5.815 -6.25637 -6.26773 -6.10062 -6.20687 
-6.39603 -6.5117 -6.57911 -6.61611 -6.69079 -6.73644 -6.78009 -6.77963 -6.7817 
-6.75816 -6.70495 -6.66419 -6.57889 -6.55009 -7.04328 -6.96704 -6.4781 -6.92593 
-6.91984 -6.98189 -6.48335 -5.86725 -6.18033 -6.69618 -3.5047 -5.30493 -5.31247 
-5.27684 -5.28095 -5.2816 -5.27899 -5.27552 -5.27046 -5.26451 -5.25775 -5.25022 
-5.24204 -5.23287 -5.22299 -5.21197 -5.20017 -5.18723 -5.17363 -5.15887 -5.14356 
-5.12705 -5.11008 -5.09185 -5.07327 -5.0534 -5.03326 -5.01175 -4.99009 -4.96704 
-4.94395 -4.91935 -4.89477 -4.86855 -4.84243 -4.81464 -4.78711 -4.75787 -4.72897 
-4.69825 -4.66799 -4.63588 -4.60436 -4.57096 -4.53825 -4.50359 -4.46972 -4.4338 
-4.39879 -4.36174 -4.32578 -4.28777 -4.25097 -4.21202 -4.17434 -4.13437 -4.09575 
-4.05486 -4.01551 -3.97382 -3.93381 -3.89143 -3.8509 -3.80797 -3.76695 -3.72313 
-3.68062 -3.63557 -3.59304 -3.54847 -3.50642 -3.46404 -3.42483 -3.38455 -3.34716 
-3.30851 -3.27323 -3.23641 -3.20322 -3.16867 -3.13802 -3.10677 -3.07962 -3.052 
-3.02961 -3.0077 -2.99227 -2.97804 -2.97144 -2.96708 -2.97128 -2.97886 -2.99517 
-3.01524 -3.04421 -3.0761 -3.1156 -3.1562 -3.20107 -3.24576 -3.29592 -3.34941 
-3.40886 -3.46614 -3.51029 -3.52249 -6.92999 -6.97547 -7.03412 -7.11169 -7.21812 
-7.36319 -7.59894 -7.9189 -8.60193 -9.70657 -12.4205 -12.5904 -12.833 -13.2483 
-13.5244 -13.6915 -5.67101 -5.70416 -5.74099 -5.77855 -5.82052 -5.86366 -5.91263 
-5.96373 -6.02323 -6.08776 -6.1653 -6.2542 -6.36587 -6.50553 -6.69126 -6.96068 
-7.33614 -8.04548 -9.20871 -11.6991 -11.8481 -11.9358 -12.3097 -12.6434 -12.8438 
-13.0215 -13.1164 -13.1748 -13.2028 -13.2316 -13.2293 -13.2266 -13.2097 -13.1802 
-13.1596 -13.0952 -13.0163 -12.8752 -12.7116 -11.7356 -9.07799 -6.47422 -6.4313 
-6.39902 -6.373 -6.35457 -6.34126 -6.33257 -6.32726 -6.32374 -5.63843 -5.60889 
-5.57988 -5.55352 -5.52768 -5.50412 -5.48115 -5.46018 -5.4398 -5.42122 -5.40327 
-5.38695 -5.37128 -5.35712 -5.34368 -5.33175 -5.32096 -5.31259 -5.30627 -5.30107 
-5.29373 -5.28688 -5.28784 -5.28673 -8.26927 -5.29339 -5.29165 -5.29933 -5.28048 
-5.2769 -5.52758 -5.27813 -5.28751 -5.27953 -4.12586 -6.32537 -6.32673 -6.32826 
-6.32836 -6.32668 -6.3229 -6.3163 -6.30783 -6.29687 -6.28467 -6.26989 -6.25398 
-6.23519 -6.2153 -6.19235 -6.16841 -6.14159 -6.11418 -6.08414 -6.05399 -6.02158 
-5.98962 -5.95568 -5.92258 -5.88771 -5.85386 -5.81838 -5.78409 -5.74834 -5.71394 
-5.67826 -5.64409 -5.6085 -5.57458 -5.53915 -5.50558 -5.47053 -5.43754 -5.40311 
-5.37078 -5.33698 -5.30529 -5.2722 -5.24117 -5.2088 -5.17845 -5.14686 -5.11726 
-5.08645 -5.05758 -5.02756 -4.99947 -4.97029 -4.94298 -4.91464 -4.88809 -4.86051 
-4.8346 -4.80777 -4.78259 -4.75657 -4.73216 -4.707 -4.68339 -4.65908 -4.63627 
-4.61286 -4.5909 -4.56836 -4.54722 -4.52558 -4.50526 -4.48454 -4.46501 -4.445 
-4.42585 -4.40635 -4.38828 -4.37054 -4.35406 -4.33782 -4.32296 -4.30826 -4.29465 
-4.28124 -4.26882 -4.25663 -4.24539 -4.23444 -4.22442 -4.21474 -4.20598 -4.19757 
-4.19004 -4.18269 -4.17602 -4.16943 -4.16332 -4.15743 -4.15202 -4.14699 -4.14278 
-4.13917 -4.13602 -4.13199 -4.12782 -4.12649 -6.32497 -5.28067 -5.27871 -5.28912 
-5.2954 -5.30251 -5.53964 -5.30791 -5.29627 -5.28914 -5.27602 -5.52776 -5.27177 
-5.28035 -5.28527 -5.31401 -5.5561 -5.32155 -5.31194 -5.3043 -5.26741 -5.27582 
-5.27045 -5.26155 -5.52051 -5.50915 -5.5375 -5.55177 -5.25817 -5.26482 -5.25575 
-5.24869 -5.24094 -5.49417 -5.23284 -5.24265 -5.25072 -5.22344 -5.47541 -5.21363 
-5.22368 -5.23353 -5.56941 -5.57491 -5.33291 -5.32236 -5.33153 -5.34286 -4.49612 
-5.45298 -5.20223 -5.21268 -5.20086 -5.1906 -5.17713 -5.60014 -5.36027 -5.34675 
-5.35623 -5.37044 -5.38648 -5.37725 -5.63203 -5.39307 -5.403 -5.42139 -5.66923 
-5.41276 -5.43053 -5.4401 -5.46088 -5.45281 -5.71117 -5.47253 -5.48184 -5.5052 
-5.7581 -5.49769 -5.51954 -5.5287 -5.55499 -5.54795 -5.81041 -5.57225 -5.58124 
-5.61078 -5.86868 -5.60429 -5.63137 -5.64017 -5.67331 -5.66753 -5.93366 -5.70617 
-5.69766 -5.8619 -5.50222 -5.51806 -5.52984 -5.54306 -5.53032 -5.5464 -5.55996 
-5.62603 -5.59413 -5.52856 -5.5075 -5.49322 -5.48263 -5.51344 -5.4831 -5.3977 
-5.14851 -5.15947 -5.17427 -5.18789 -5.16396 -5.42705 -5.43326 -6.00634 -5.77189 
-5.73822 -5.74352 -5.78047 -5.82297 -5.81776 -6.08841 -5.85624 -5.86531 -5.91477 
-6.183 -5.90913 -5.95508 -5.96461 -6.02438 -6.01779 -6.2954 -6.07634 -6.08684 
-5.80384 -5.66331 -5.70509 -5.75175 -5.73899 -5.36501 -5.11648 -5.12759 -5.14415 
-5.13386 -5.11068 -5.10047 -5.5841 -5.56964 -5.61534 -5.59971 -5.5792 -5.6751 
-5.6351 -5.65195 -5.69304 -5.71993 -5.32902 -5.06375 -5.07388 -5.09238 -5.08111 
-5.04248 -5.28978 -5.02386 -5.03389 -5.05391 -5.46962 -5.45542 -5.44272 -5.41275 
-5.24742 -4.98086 -4.99067 -5.01223 -5.00068 -4.95584 -5.20203 -4.94445 -4.96741 
-4.93486 -4.90808 -4.91969 -4.89531 -4.88586 -5.1536 -5.10207 -4.84296 -4.86888 
-4.85722 -4.83368 -4.80328 -4.98981 -4.74646 -4.75819 -4.78766 -4.81494 -5.4596 
-5.40365 -5.3708 -5.37974 -5.39155 -5.42483 -5.33465 -5.29525 -5.25272 -5.20713 
-5.21757 -5.52688 -5.50203 -5.52802 -5.55054 -5.55494 -5.58716 -5.62442 -5.65195 
-5.61317 -6.16386 -6.43399 -6.15372 -6.23484 -6.24923 -6.35792 -6.33684 -6.61637 
-6.46322 -6.48979 -6.66185 -6.87149 -6.60887 -6.82948 -6.90232 -7.20171 -7.04815 
-7.24147 -7.48869 -7.76103 -5.92651 -5.79036 -5.77001 -5.74422 -5.69557 -5.66661 
-5.7137 -5.76577 -5.82295 -5.85772 -5.79817 -5.82576 -5.88752 -5.91117 -5.84761 
-5.59219 -5.55553 -5.52272 -5.49531 -5.47272 -5.44055 -5.40597 -5.42427 -5.46085 
-5.48511 -5.44509 -5.51476 -5.47069 -5.55691 -5.2626 -5.30466 -5.34371 -5.3555 
-5.31639 -5.27426 -5.22929 -5.55006 -5.63676 -5.59364 -5.63256 -5.67784 -5.72791 
-5.78275 -5.73701 -5.68461 -5.63601 -5.50221 -5.53953 -5.59063 -5.58209 -7.73526 
-9.9126 -8.67513 -7.81672 -10.9373 -5.10661 -5.15842 -5.16935 -5.11771 -4.92936 
-4.65961 -4.66862 -4.69862 -4.72959 -4.7205 -4.77855 -5.04745 -5.05172 -4.99375 
-5.004 -4.60501 -4.63624 -4.62431 -4.86618 -4.59611 -4.55933 -4.73201 -4.80034 
-4.5301 -4.53893 -4.57129 -4.68674 -5.18148 -5.34617 -5.32932 -5.3691 -5.38611 
-5.40411 -5.42526 -5.38078 -5.36307 -5.32156 -5.29533 -5.27808 -5.25874 -5.24201 
-5.28692 -5.30399 -5.68581 -5.95343 -5.88547 -5.92313 -5.95559 -6.07846 -5.99828 
-5.62916 -5.68025 -5.73512 -5.79784 -5.7398 -5.79387 -5.84237 -5.90682 -6.05883 
-5.98138 -6.03018 -5.99451 -6.07186 -6.11181 -6.14493 -6.27386 -6.16921 -6.95492 
-6.39628 -6.54327 -6.72682 -6.63065 -6.20163 -6.24185 -6.35208 -6.30117 -6.41156 
-6.47938 -6.02673 -6.10506 -6.15529 -6.04938 -5.9203 -5.85504 -5.97595 -5.98917 
-5.92444 -5.48449 -5.45182 -5.40221 -5.42879 -5.37717 -5.35606 -5.33799 -5.31264 
-5.33117 -5.35177 -5.37616 -5.43492 -5.40294 -5.46172 -5.52322 -5.56706 -5.50087 
-5.79349 -5.59318 -5.54498 -5.61508 -5.66684 -5.72197 -5.64498 -5.77987 -5.85473 
-5.85957 -6.12647 -6.27545 -6.18802 -6.24538 -6.34259 -6.44686 -6.81718 -6.67058 
-6.53419 -5.91798 -7.60524 -7.24505 -8.9785 -8.29565 -9.28446 -11.6311 -11.8908 
-8.47652 -12.1219 -9.54317 -9.27593 -12.212 -8.75119 -12.3546 -9.89628 -9.64857 
-7.92581 -8.20924 -12.4083 -9.05598 -12.4628 -10.1472 -10.0145 -12.4561 -9.2272 
-12.4553 -10.2531 -10.2059 -8.41827 -8.53925 -8.58442 -12.3987 -12.4176 -10.2632 
-9.29447 -10.2626 -10.2541 -12.391 -9.27416 -10.2042 -12.3922 -8.56201 -6.5584 
-6.46164 -6.36689 -6.28799 -6.20626 -6.13463 -6.06093 -5.99159 -6.05998 -4.66135 
-4.39076 -4.39961 -4.43427 -4.47049 -4.50399 -4.49184 -4.46164 -4.4219 -5.13058 
-5.07621 -5.0626 -5.01811 -4.87682 -4.86912 -4.93282 -4.94194 -4.95612 -4.89056 
-4.82205 -4.73411 -4.80282 -4.80911 -4.73928 -4.32664 -4.36222 -4.34967 -4.58856 
-4.31778 -4.27547 -4.51398 -4.24305 -4.25193 -4.28826 -4.19946 -4.43774 -4.16657 
-4.17548 -4.21261 -4.51518 -4.59 -4.66311 -4.67783 -4.66774 -4.59479 -4.603 
-4.52684 -5.21044 -5.19426 -5.14349 -5.15963 -5.10603 -5.08945 -5.03203 -5.04928 
-5.06902 -5.19948 -5.17991 -5.23102 -5.24979 -5.26796 -5.2186 -5.23844 -5.28669 
-5.30598 -5.25881 -5.27972 -5.32653 -5.20705 -5.1456 -5.12583 -4.75098 -4.7657 
-4.92374 -4.90608 -4.97094 -4.98864 -5.00825 -4.85472 -4.83753 -5.08835 -5.10812 
-5.12896 -5.18566 -5.16513 -4.52061 -4.44504 -4.43876 -4.44984 -4.45247 -5.15092 
-5.17416 -5.22932 -4.5331 -4.61314 -4.69089 -4.70666 -4.78238 -4.80058 -5.02702 
-4.96158 -4.94283 -4.87306 -4.89223 -4.82051 -5.00243 -4.98169 -5.04709 -5.06811 
-5.09021 -5.02424 -5.04682 -5.11346 -4.97293 -4.62714 -4.54505 -4.58533 -4.5645 
-4.64649 -4.72548 -4.74548 -4.66667 -4.46265 -4.48129 -4.50252 -4.68557 -4.76316 
-4.83939 -4.91227 -4.93147 -4.85574 -4.87345 -4.89386 -4.95142 -4.81756 -6.37071 
-6.28324 -6.20909 -6.1285 -6.04576 -5.98206 -6.19598 -6.10792 -5.47303 -5.40588 
-5.44135 -5.5162 -5.56368 -5.48218 -5.30126 -5.34962 -5.37656 -5.3239 -5.27508 
-5.19836 -5.25211 -5.4083 -5.34865 -5.44512 -5.52762 -5.61471 -6.81868 -7.04248 
-7.31045 -6.96947 -6.79844 -6.65302 -6.558 -6.67616 -7.53202 -7.10195 -7.22125 
-7.7074 -7.85472 -7.40664 -7.32726 -7.09647 -6.8197 -6.74137 -6.9135 -7.0137 
-7.95443 -7.99288 -7.44878 -6.88587 -6.93641 -7.15709 -7.19082 -6.96759 -12.3866 
-12.4156 -10.1756 -9.15716 -10.058 -9.96921 -12.3612 -8.88992 -9.72302 -12.2409 
-12.182 -12.9008 -10.4008 -8.58095 -10.1038 -12.7273 -9.61717 -8.31618 -11.6939 
-12.4805 -10.2015 -8.3684 -9.84057 -10.5592 -9.52342 -7.83423 -8.50525 -8.82605 
-8.47753 -7.92067 -7.98116 -7.45063 -7.19656 -6.97776 -7.41413 -7.34457 -7.80459 
-7.6544 -8.07262 -7.75911 -7.4027 -7.81525 -8.35312 -8.18944 -7.37518 -7.71271 
-7.56031 -7.54262 -7.06431 -7.32704 -7.34882 -7.21408 -7.22619 -6.86985 -7.11379 
-7.11182 -6.96057 -7.25305 -7.14644 -7.46213 -7.17606 -7.13262 -6.94055 -6.96756 
-7.2243 -7.02639 -6.91433 -6.84927 -6.90041 -7.06954 -6.98932 -6.90107 -6.79153 
-6.73457 -6.82043 -6.74904 -6.97926 -7.03688 -7.05176 -6.74447 -6.98802 -6.47003 
-6.52657 -6.47825 -6.43554 -6.43071 -6.66295 -6.4035 -6.39734 -6.37208 -6.61086 
-6.34983 -6.35758 -6.37684 -6.33635 -6.587 -6.33084 -6.33428 -6.3436 -6.32519 
-6.32885 -6.32679 -6.32866 -6.3226 -6.3268 -6.3285 -6.32756 -6.53282 -6.45302 
-6.35571 -6.42496 -6.32294 -6.22347 -6.1675 -6.26123 -6.60699 -6.67291 -6.54602 
-6.48901 -6.37977 -6.43041 -6.32065 -6.27482 -6.47389 -6.50922 -6.63323 -6.59459 
-6.72869 -6.77202 -6.80072 -6.81354 -6.67504 -6.66034 -6.53524 -6.55124 -6.43502 
-6.41825 -6.39307 -6.36025 -5.6997 -5.75637 -5.81373 -5.90007 -5.83963 -5.37672 
-5.32261 -5.72274 -5.66819 -5.57656 -5.62751 -5.6788 -6.68055 -6.6272 -6.68407 
-6.73736 -6.81896 -6.89273 -7.03541 -7.14062 -6.82661 -6.78561 -5.95993 -6.01802 
-5.9252 -5.8704 -5.77683 -5.72869 -5.82903 -5.13813 -5.07086 -5.16386 -5.22277 
-5.24711 -5.29837 -5.27138 -5.32065 -5.29569 -5.34845 -5.40878 -5.48656 -5.5314 
-5.44459 -5.37638 -5.40647 -5.52277 -5.48306 -5.57788 -5.62414 -4.52815 -4.35983 
-4.08817 -4.09701 -4.13512 -4.12157 -4.04194 -4.28039 -4.01694 -4.05569 -4.00829 
-3.96096 -4.36074 -4.28121 -4.20008 -4.1994 -3.927 -3.93544 -3.97478 -4.11713 
-4.11673 -3.8442 -3.85259 -3.89254 -3.87855 -4.77859 -4.70417 -4.60722 -4.63144 
-4.55794 -4.9429 -4.91727 -4.99662 -5.02209 -5.09656 -5.1231 -5.14981 -5.21508 
-5.18966 -5.076 -6.12478 -6.07325 -5.97706 -6.02523 -5.92382 -5.81934 -5.77586 
-5.87826 -6.17187 -6.21384 -6.10791 -6.06905 -5.96508 -5.8584 -5.89227 -6.00124 
-6.1413 -6.16922 -6.2806 -6.25015 -6.05686 -6.03172 -5.92023 -5.9426 -5.96027 
-6.32151 -6.30466 -6.19153 -6.20757 -6.09134 -6.0769 -6.81065 -6.79421 -6.66827 
-6.67729 -6.55718 -6.55365 -6.44326 -6.44331 -6.43513 -6.76745 -6.65024 -6.62538 
-6.5415 -6.52274 -6.42012 -6.56475 -6.5962 -6.69178 -6.73225 -6.60808 -6.65625 
-6.72763 -6.70186 -6.66752 -6.61209 -6.6386 -6.59383 -6.58512 -6.60757 -6.40049 
-6.49996 -6.47407 -4.75004 -4.72643 -4.79672 -4.689 -4.66016 -4.59377 -4.62868 
-4.84135 -4.77545 -4.80271 -4.86752 -4.89537 -4.97005 -5.04866 -4.99835 -4.92442 
-4.0322 -3.75968 -3.76845 -3.80898 -3.79469 -3.7093 -3.94609 -3.68199 -3.72393 
-3.6731 -3.62167 -3.77368 -3.53513 -3.54963 -3.59431 -3.63633 -3.58585 -3.85925 
-3.86188 -3.69158 -3.45209 -3.4656 -3.50821 -3.50028 -3.94681 -4.03244 -4.04163 
-4.29394 -4.28891 -4.36773 -4.37225 -4.18007 -3.61373 -3.37364 -3.38649 -3.42695 
-3.41957 -4.12568 -4.20826 -4.21426 -4.13213 -4.33009 -3.95645 -3.96223 -4.04739 
-3.87614 -3.77623 -3.78297 -3.8701 -4.23307 -3.69286 -3.61246 -3.5327 -3.53773 
-3.3106 -3.34963 -3.34238 -3.29835 -3.26747 -3.46358 -3.22599 -3.23842 -3.27561 
-3.69567 -3.78877 -3.69855 -3.60831 -3.61023 -3.52559 -3.44267 -3.45371 -3.20537 
-3.19652 -3.15768 -3.39202 -3.13016 -3.13977 -3.17036 -4.1329 -4.30153 -4.29277 
-4.37225 -4.3813 -4.39816 -4.41985 -4.33776 -4.31657 -4.23583 -4.22247 -4.21331 
-4.13251 -4.14249 -4.15305 -4.16968 -4.25488 -4.40734 -4.3664 -4.44825 -4.48793 
-4.53112 -4.4205 -4.46398 -4.57595 -5.34652 -5.43814 -5.3729 -5.24014 -5.26519 
-5.20262 -5.17638 -5.10398 -5.1321 -5.05673 -5.02739 -4.83151 -4.86129 -4.80561 
-6.37675 -6.34761 -6.53566 -6.57683 -6.62535 -6.57747 -6.541 -5.60017 -5.56229 
-5.66864 -5.71005 -5.7474 -5.63527 -5.66675 -5.7799 -5.80664 -5.69348 -5.71366 
-5.8272 -5.84302 -5.25464 -5.22863 -5.29034 -5.31532 -5.08612 -5.11537 -5.18784 
-5.16008 -4.71729 -4.66048 -4.69015 -4.7456 -4.77514 -4.75123 -4.72011 -4.7824 
-4.92099 -4.89132 -4.95407 -4.98385 -5.01354 -5.04303 -4.97854 -4.95002 -4.89465 
-4.81279 -4.86583 -4.83603 -4.32407 -3.96729 -4.04991 -4.06009 -3.9737 -3.88288 
-3.98586 -3.97929 -4.06754 -4.07947 -3.88184 -3.79388 -3.78857 -3.78713 -3.32427 
-3.09464 -3.10818 -3.08117 -3.07021 -3.03865 -3.05319 -3.031 -3.01796 -3.26319 
-3.21265 -2.99422 -3.00905 -2.99228 -2.97874 -4.03111 -3.9987 -4.09603 -4.19105 
-4.28123 -4.23135 -4.13348 -4.0333 -3.92964 -3.88868 -3.88576 -4.37412 -4.27573 
-4.3101 -3.30618 -3.37736 -3.36416 -5.42463 -5.3992 -5.4704 -5.50204 -5.5323 
-5.44897 -5.47203 -5.56067 -5.58633 -5.49366 -5.51298 -5.60679 -5.62255 -5.7288 
-5.74034 -5.85454 -5.97295 -6.0997 -6.21901 -6.2168 -6.33087 -6.33265 -6.32681 
-6.31413 -6.20322 -6.21413 -6.09746 -5.98028 -5.98219 -6.1016 -5.97976 -6.08892 
-5.97514 -6.29637 -6.27393 -6.16833 -6.18783 -6.07736 -6.06369 -5.96537 -5.9696 
-6.65026 -6.44315 -6.52989 -6.56233 -6.48952 -6.40795 -6.31822 -6.51827 -6.48324 
-6.4227 -6.45145 -6.37742 -6.57158 -6.55158 -6.5727 -6.31073 -6.31749 -6.32372 
-6.31798 -6.32077 -6.30905 -6.30344 -6.29132 -6.28079 -6.2864 -6.29857 -6.27185 
-6.52194 -6.48475 -6.50292 -6.26412 -6.25582 -6.24992 -6.22883 -6.21085 -6.217 
-6.2371 -5.63568 -5.54542 -5.52977 -5.47224 -5.30612 -5.28074 -5.33991 -5.36337 
-5.38499 -5.32923 -5.34933 -5.40439 -5.42175 -5.36604 -5.38103 -5.43825 -5.45493 
-5.39661 -6.13683 -6.14786 -6.24738 -6.22582 -5.86621 -5.75493 -5.74878 -5.86164 
-5.86479 -5.8656 -5.76028 -5.76604 -5.67722 -5.56049 -5.64712 -5.65752 -5.57483 
-5.58868 -5.6675 -5.60263 -5.61872 -5.78267 -5.77306 -5.8681 -5.87337 -5.88178 
-5.96976 -5.96648 -6.05329 -6.05191 -5.68753 -5.70226 -5.63753 -5.65401 -5.88905 
-5.81121 -5.79678 -5.72099 -5.73751 -6.13251 -6.21245 -6.29595 -6.35559 -6.28048 
-6.26626 -6.38535 -6.39768 -6.45485 -6.43922 -6.19406 -6.14312 -6.13393 -6.16356 
-6.18537 -6.16992 -6.3246 -6.25885 -6.33441 -6.01206 -6.05532 -6.04837 -6.07555 
-6.10895 -6.1156 -6.08552 -4.40751 -4.07247 -4.17438 -3.92594 -3.79188 -3.78662 
-3.89763 -3.82145 -3.81731 -3.86143 -3.96818 -3.43215 -3.51963 -3.34824 -3.19698 
-3.24435 -3.23197 -3.29286 -3.27223 -3.20863 -3.17855 -2.95503 -2.97399 -2.98009 
-2.95968 -3.69164 -3.5912 -3.6042 -3.70109 -4.10881 -4.14668 -4.2443 -4.20916 
-4.6092 -4.52826 -4.64022 -4.67176 -4.70413 -4.59709 -4.56227 -4.47644 -4.34356 
-4.44085 -4.63202 -4.41946 -4.38047 -4.5132 -4.28306 -4.18834 -4.32424 -4.23308 
-4.14534 -3.95263 -3.90493 -4.00748 -4.0497 -4.09589 -4.00454 -3.17044 -3.17099 
-3.16636 -2.94442 -2.96952 -2.97378 -2.94987 -2.95061 -3.18302 -2.96888 -2.99684 
-2.98098 -2.98244 -3.01601 -3.04428 -3.23466 -3.01483 -3.28265 -3.32452 -3.08762 
-3.11395 -3.07521 -3.04292 -3.12998 -3.45099 -3.20069 -3.15466 -3.18539 -3.24422 
-3.18635 -3.16301 -3.70176 -3.57244 -3.57846 -3.68373 -3.6805 -3.68235 -3.57137 
-3.59162 -3.7084 -3.57525 -3.74809 -3.62039 -3.47244 -3.39264 -3.41235 -3.50701 
-3.49031 -3.47572 -3.37824 -3.36864 -3.46757 -3.46377 -3.36277 -3.37061 -3.4769 