# vtk DataFile Version 5.1
vtk output
ASCII
DATASET POLYDATA
POINTS 10529 float
-1.314 -0.1347 0.1 -1.314 -0.113106 0.1 -1.314 -0.0912693 0.1 
-1.314 -0.0689928 0.1 -1.314 -0.0461493 0.1 -1.314 -0.0227102 0.1 
-1.314 0.00125938 0.1 -1.314 0.0256392 0.1 -1.314 0.0502987 0.1 
-1.314 0.0751281 0.1 -1.314 0.10005 0.1 -1.314 0.125018 0.1 
-1.314 0.150006 0.1 -1.314 0.175001 0.1 -1.314 0.2 0.1 
-1.314 0.225 0.1 -1.314 0.25 0.1 -1.314 0.275 0.1 
-1.314 0.3 0.1 -1.314 0.325 0.1 -1.314 0.349999 0.1 
-1.314 0.374997 0.1 -1.314 0.399989 0.1 -1.314 0.424969 0.1 
-1.314 0.44992 0.1 -1.314 0.474814 0.1 -1.314 0.499601 0.1 
-1.314 0.524213 0.1 -1.314 0.548566 0.1 -1.314 0.572579 0.1 
-1.314 0.59621 0.1 -1.314 0.619479 0.1 -1.314 0.642467 0.1 
-1.314 0.6653 0.1 -1.29146 -0.1347 0.1 -1.26874 -0.1347 0.1 
-1.2457 -0.1347 0.1 -1.22225 -0.1347 0.1 -1.19837 -0.1347 0.1 
-1.17411 -0.1347 0.1 -1.14955 -0.1347 0.1 -1.12479 -0.1347 0.1 
-1.09991 -0.1347 0.1 -1.07496 -0.1347 0.1 -1.04999 -0.1347 0.1 
-1.025 -0.1347 0.1 -0.999999 -0.1347 0.1 -0.975 -0.1347 0.1 
-0.95 -0.1347 0.1 -0.925 -0.1347 0.1 -0.9 -0.1347 0.1 
-0.875 -0.1347 0.1 -0.85 -0.1347 0.1 -0.825001 -0.1347 0.1 
-0.800005 -0.1347 0.1 -0.775016 -0.1347 0.1 -0.750045 -0.1347 0.1 
-0.725116 -0.1347 0.1 -0.700272 -0.1347 0.1 -0.675582 -0.1347 0.1 
-0.651147 -0.1347 0.1 -0.627088 -0.1347 0.1 -0.603515 -0.1347 0.1 
-0.580489 -0.1347 0.1 -0.557982 -0.1347 0.1 -0.535879 -0.1347 0.1 
-0.514 -0.1347 0.1 -1.29146 0.6653 0.1 -1.26874 0.6653 0.1 
-1.2457 0.6653 0.1 -1.22225 0.6653 0.1 -1.19837 0.6653 0.1 
-1.17411 0.6653 0.1 -1.14955 0.6653 0.1 -1.12479 0.6653 0.1 
-1.09991 0.6653 0.1 -1.07496 0.6653 0.1 -1.04999 0.6653 0.1 
-1.025 0.6653 0.1 -0.999999 0.6653 0.1 -0.975 0.6653 0.1 
-0.95 0.6653 0.1 -0.925 0.6653 0.1 -0.9 0.6653 0.1 
-0.875 0.6653 0.1 -0.85 0.6653 0.1 -0.825001 0.6653 0.1 
-0.800005 0.6653 0.1 -0.775016 0.6653 0.1 -0.750046 0.6653 0.1 
-0.725117 0.6653 0.1 -0.700273 0.6653 0.1 -0.675583 0.6653 0.1 
-0.651148 0.6653 0.1 -0.627089 0.6653 0.1 -0.603516 0.6653 0.1 
-0.58049 0.6653 0.1 -0.557983 0.6653 0.1 -0.535879 0.6653 0.1 
-0.514 0.6653 0.1 -0.514 -0.113106 0.1 -0.514 -0.0912697 0.1 
-0.514 -0.0689932 0.1 -0.514 -0.0461498 0.1 -0.514 -0.0227108 0.1 
-0.514 0.00125891 0.1 -0.514 0.0256388 0.1 -0.514 0.0502984 0.1 
-0.514 0.075128 0.1 -0.514 0.10005 0.1 -0.514 0.125018 0.1 
-0.514 0.150006 0.1 -0.514 0.175001 0.1 -0.514 0.2 0.1 
-0.514 0.225 0.1 -0.514 0.25 0.1 -0.514 0.275 0.1 
-0.514 0.3 0.1 -0.514 0.325 0.1 -0.514 0.349999 0.1 
-0.514 0.374997 0.1 -0.514 0.399989 0.1 -0.514 0.424969 0.1 
-0.514 0.44992 0.1 -0.514 0.474814 0.1 -0.514 0.499602 0.1 
-0.514 0.524213 0.1 -0.514 0.548566 0.1 -0.514 0.57258 0.1 
-0.514 0.59621 0.1 -0.514 0.619479 0.1 -0.514 0.642467 0.1 
-2.95566 -2.25 0.1 -2.90981 -2.25 0.1 -2.86154 -2.25 0.1 
-2.81085 -2.25 0.1 -2.75862 -2.25 0.1 -2.70595 -2.25 0.1 
-2.65365 -2.25 0.1 -2.602 -2.25 0.1 -2.55099 -2.25 0.1 
-2.50045 -2.25 0.1 -2.45018 -2.25 0.1 -2.40007 -2.25 0.1 
-2.35002 -2.25 0.1 -2.3 -2.25 0.1 -2.25 -2.25 0.1 
-2.2 -2.25 0.1 -2.15 -2.25 0.1 -2.1 -2.25 0.1 
-2.05 -2.25 0.1 -2 -2.25 0.1 -1.95 -2.25 0.1 
-1.9 -2.25 0.1 -1.85 -2.25 0.1 -1.8 -2.25 0.1 
-1.75 -2.25 0.1 -1.7 -2.25 0.1 -1.65 -2.25 0.1 
-1.6 -2.25 0.1 -1.55 -2.25 0.1 -1.5 -2.25 0.1 
-1.45 -2.25 0.1 -1.4 -2.25 0.1 -1.35 -2.25 0.1 
-1.3 -2.25 0.1 -1.25 -2.25 0.1 -1.2 -2.25 0.1 
-1.15 -2.25 0.1 -1.1 -2.25 0.1 -1.05 -2.25 0.1 
-0.999999 -2.25 0.1 -0.950001 -2.25 0.1 -0.899999 -2.25 0.1 
-0.849999 -2.25 0.1 -0.799999 -2.25 0.1 -0.749999 -2.25 0.1 
-0.699999 -2.25 0.1 -0.649999 -2.25 0.1 -0.599999 -2.25 0.1 
-0.549999 -2.25 0.1 -0.499999 -2.25 0.1 -0.45 -2.25 0.1 
-0.4 -2.25 0.1 -0.349999 -2.25 0.1 -0.299999 -2.25 0.1 
-0.249999 -2.25 0.1 -0.200001 -2.25 0.1 -0.150001 -2.25 0.1 
-0.099999 -2.25 0.1 -0.0499991 -2.25 0.1 -8.36604e-07 -2.25 0.1 
0.049999 -2.25 0.1 0.100001 -2.25 0.1 0.150001 -2.25 0.1 
0.199999 -2.25 0.1 0.249999 -2.25 0.1 0.300001 -2.25 0.1 
0.350001 -2.25 0.1 0.399999 -2.25 0.1 0.449999 -2.25 0.1 
0.5 -2.25 0.1 0.55 -2.25 0.1 0.599999 -2.25 0.1 
0.649999 -2.25 0.1 0.7 -2.25 0.1 0.749999 -2.25 0.1 
0.799999 -2.25 0.1 0.850001 -2.25 0.1 0.900001 -2.25 0.1 
0.950001 -2.25 0.1 1 -2.25 0.1 1.05 -2.25 0.1 
1.1 -2.25 0.1 1.15 -2.25 0.1 1.2 -2.25 0.1 
1.25 -2.25 0.1 1.3 -2.25 0.1 1.35 -2.25 0.1 
1.4 -2.25 0.1 1.45 -2.25 0.1 1.5 -2.25 0.1 
1.55 -2.25 0.1 1.6 -2.25 0.1 1.65 -2.25 0.1 
1.7 -2.25 0.1 1.75 -2.25 0.1 1.8 -2.25 0.1 
1.85002 -2.25 0.1 1.90007 -2.25 0.1 1.95018 -2.25 0.1 
2.00045 -2.25 0.1 2.05099 -2.25 0.1 2.102 -2.25 0.1 
2.15365 -2.25 0.1 2.20595 -2.25 0.1 2.25862 -2.25 0.1 
2.31085 -2.25 0.1 2.36154 -2.25 0.1 2.40981 -2.25 0.1 
2.45566 -2.25 0.1 -3 -2.25 0.1 2.5 -2.25 0.1 
2.5 -2.20988 0.1 2.5 -2.16822 0.1 2.5 -2.124 0.1 
2.5 -2.077 0.1 2.5 -2.0278 0.1 2.5 -1.97741 0.1 
2.5 -1.92664 0.1 2.5 -1.87595 0.1 2.5 -1.82548 0.1 
2.5 -1.77522 0.1 2.5 -1.72509 0.1 2.5 -1.67503 0.1 
2.5 -1.62501 0.1 2.5 -1.575 0.1 2.5 -1.525 0.1 
2.5 -1.475 0.1 2.5 -1.425 0.1 2.5 -1.375 0.1 
2.5 -1.325 0.1 2.5 -1.275 0.1 2.5 -1.225 0.1 
2.5 -1.175 0.1 2.5 -1.125 0.1 2.5 -1.075 0.1 
2.5 -1.025 0.1 2.5 -0.974999 0.1 2.5 -0.924999 0.1 
2.5 -0.874999 0.1 2.5 -0.825 0.1 2.5 -0.774999 0.1 
2.5 -0.724999 0.1 2.5 -0.675 0.1 2.5 -0.625 0.1 
2.5 -0.575001 0.1 2.5 -0.524999 0.1 2.5 -0.475 0.1 
2.5 -0.425001 0.1 2.5 -0.374999 0.1 2.5 -0.324999 0.1 
2.5 -0.275001 0.1 2.5 -0.225001 0.1 2.5 -0.175 0.1 
2.5 -0.125001 0.1 2.5 -0.0750006 0.1 2.5 -0.0250004 0.1 
2.5 0.0250009 0.1 2.5 0.0749995 0.1 2.5 0.124999 0.1 
2.5 0.174999 0.1 2.5 0.224999 0.1 2.5 0.274999 0.1 
2.5 0.324999 0.1 2.5 0.375001 0.1 2.5 0.425001 0.1 
2.5 0.475001 0.1 2.5 0.525001 0.1 2.5 0.575001 0.1 
2.5 0.625001 0.1 2.5 0.674999 0.1 2.5 0.724999 0.1 
2.5 0.775001 0.1 2.5 0.825001 0.1 2.5 0.875001 0.1 
2.5 0.925001 0.1 2.5 0.975001 0.1 2.5 1.025 0.1 
2.5 1.075 0.1 2.5 1.125 0.1 2.5 1.175 0.1 
2.5 1.225 0.1 2.5 1.275 0.1 2.5 1.325 0.1 
2.5 1.37501 0.1 2.5 1.42503 0.1 2.5 1.47509 0.1 
2.5 1.52522 0.1 2.5 1.57548 0.1 2.5 1.62595 0.1 
2.5 1.67664 0.1 2.5 1.72741 0.1 2.5 1.7778 0.1 
2.5 1.82699 0.1 2.5 1.874 0.1 2.5 1.91822 0.1 
2.5 1.95988 0.1 2.5 2 0.1 -2.90982 2 0.1 
-2.95566 2 0.1 -2.86154 2 0.1 -2.81085 2 0.1 
-2.75862 2 0.1 -2.70595 2 0.1 -2.65364 2 0.1 
-2.602 2 0.1 -2.55099 2 0.1 -2.50045 2 0.1 
-2.45018 2 0.1 -2.40007 2 0.1 -2.35002 2 0.1 
-2.3 2 0.1 -2.25 2 0.1 -2.2 2 0.1 
-2.15 2 0.1 -2.1 2 0.1 -2.05 2 0.1 
-2 2 0.1 -1.95 2 0.1 -1.9 2 0.1 
-1.85 2 0.1 -1.8 2 0.1 -1.75 2 0.1 
-1.7 2 0.1 -1.65 2 0.1 -1.6 2 0.1 
-1.55 2 0.1 -1.5 2 0.1 -1.45 2 0.1 
-1.4 2 0.1 -1.35 2 0.1 -1.3 2 0.1 
-1.25 2 0.1 -1.2 2 0.1 -1.15 2 0.1 
-1.1 2 0.1 -1.05 2 0.1 -0.999999 2 0.1 
-0.949999 2 0.1 -0.899999 2 0.1 -0.850001 2 0.1 
-0.800001 2 0.1 -0.749999 2 0.1 -0.699999 2 0.1 
-0.650001 2 0.1 -0.600001 2 0.1 -0.549999 2 0.1 
-0.499999 2 0.1 -0.450001 2 0.1 -0.400001 2 0.1 
-0.350001 2 0.1 -0.299999 2 0.1 -0.25 2 0.1 
-0.200001 2 0.1 -0.150001 2 0.1 -0.100001 2 0.1 
-0.0499992 2 0.1 5.65442e-07 2 0.1 0.0499991 2 0.1 
0.100001 2 0.1 0.150001 2 0.1 0.200001 2 0.1 
0.25 2 0.1 0.299999 2 0.1 0.349999 2 0.1 
0.400001 2 0.1 0.450001 2 0.1 0.499999 2 0.1 
0.549999 2 0.1 0.599999 2 0.1 0.650001 2 0.1 
0.699999 2 0.1 0.749999 2 0.1 0.799999 2 0.1 
0.849999 2 0.1 0.899999 2 0.1 0.949999 2 0.1 
0.999999 2 0.1 1.05 2 0.1 1.1 2 0.1 
1.15 2 0.1 1.2 2 0.1 1.25 2 0.1 
1.3 2 0.1 1.35 2 0.1 1.4 2 0.1 
1.45 2 0.1 1.5 2 0.1 1.55 2 0.1 
1.6 2 0.1 1.65 2 0.1 1.7 2 0.1 
1.75 2 0.1 1.8 2 0.1 1.85002 2 0.1 
1.90007 2 0.1 1.95018 2 0.1 2.00045 2 0.1 
2.05099 2 0.1 2.102 2 0.1 2.15364 2 0.1 
2.20595 2 0.1 2.25862 2 0.1 2.31085 2 0.1 
2.36154 2 0.1 2.40982 2 0.1 2.45566 2 0.1 
-3 2 0.1 -3 -2.16822 0.1 -3 -2.20988 0.1 
-3 -2.124 0.1 -3 -2.07699 0.1 -3 -2.0278 0.1 
-3 -1.97741 0.1 -3 -1.92664 0.1 -3 -1.87595 0.1 
-3 -1.82548 0.1 -3 -1.77522 0.1 -3 -1.72509 0.1 
-3 -1.67503 0.1 -3 -1.62501 0.1 -3 -1.575 0.1 
-3 -1.525 0.1 -3 -1.475 0.1 -3 -1.425 0.1 
-3 -1.375 0.1 -3 -1.325 0.1 -3 -1.275 0.1 
-3 -1.225 0.1 -3 -1.175 0.1 -3 -1.125 0.1 
-3 -1.075 0.1 -3 -1.025 0.1 -3 -0.974999 0.1 
-3 -0.924999 0.1 -3 -0.874999 0.1 -3 -0.825001 0.1 
-3 -0.775001 0.1 -3 -0.724999 0.1 -3 -0.674999 0.1 
-3 -0.625001 0.1 -3 -0.574999 0.1 -3 -0.524999 0.1 
-3 -0.475001 0.1 -3 -0.425001 0.1 -3 -0.374999 0.1 
-3 -0.325001 0.1 -3 -0.274999 0.1 -3 -0.224999 0.1 
-3 -0.175001 0.1 -3 -0.125001 0.1 -3 -0.0749992 0.1 
-3 -0.0249991 0.1 -3 0.0249992 0.1 -3 0.0749991 0.1 
-3 0.125001 0.1 -3 0.175001 0.1 -3 0.225001 0.1 
-3 0.274999 0.1 -3 0.324999 0.1 -3 0.375001 0.1 
-3 0.424999 0.1 -3 0.474999 0.1 -3 0.525001 0.1 
-3 0.575001 0.1 -3 0.624999 0.1 -3 0.675001 0.1 
-3 0.725001 0.1 -3 0.774999 0.1 -3 0.824999 0.1 
-3 0.874999 0.1 -3 0.925001 0.1 -3 0.974999 0.1 
-3 1.025 0.1 -3 1.075 0.1 -3 1.125 0.1 
-3 1.175 0.1 -3 1.225 0.1 -3 1.275 0.1 
-3 1.325 0.1 -3 1.37501 0.1 -3 1.42503 0.1 
-3 1.47509 0.1 -3 1.52522 0.1 -3 1.57548 0.1 
-3 1.62595 0.1 -3 1.67664 0.1 -3 1.72741 0.1 
-3 1.7778 0.1 -3 1.82699 0.1 -3 1.874 0.1 
-3 1.91822 0.1 -3 1.95988 0.1 -2.95534 -2.2102 0.1 
2.45534 -2.2102 0.1 2.45534 1.9602 0.1 -2.95508 -2.16845 0.1 
-2.95534 1.9602 0.1 -2.90877 1.96066 0.1 -2.85967 1.96089 0.1 
-2.95508 1.91845 0.1 -2.95467 1.87374 0.1 -2.95439 1.82627 0.1 
-2.95428 1.77698 0.1 -2.95427 1.72674 0.1 -2.95428 1.67622 0.1 
-2.95427 1.62574 0.1 -2.95426 1.57539 0.1 -2.95425 1.52519 0.1 
-2.95424 1.47508 0.1 -2.95424 1.42503 0.1 -2.95424 1.37501 0.1 
-2.95424 1.325 0.1 -2.95424 1.275 0.1 -2.95424 1.225 0.1 
-2.95424 1.175 0.1 -2.95424 1.125 0.1 -2.95424 1.075 0.1 
-2.95424 1.025 0.1 -2.95424 0.975 0.1 -2.95424 0.925 0.1 
-2.95424 0.875 0.1 -2.95424 0.825 0.1 -2.95424 0.775 0.1 
-2.95424 0.725 0.1 -2.95424 0.675 0.1 -2.95424 0.625 0.1 
-2.95424 0.575 0.1 -2.95424 0.525 0.1 -2.95424 0.475 0.1 
-2.95424 0.425 0.1 -2.95424 0.375 0.1 -2.95424 0.325 0.1 
-2.95424 0.275 0.1 -2.95424 0.175 0.1 -2.95424 0.225 0.1 
-2.80864 1.96098 0.1 2.40877 1.96066 0.1 2.35967 1.96089 0.1 
2.30864 1.96098 0.1 2.25668 1.96103 0.1 2.2046 1.96107 0.1 
[...]
CELL_DATA 10377
SCALARS p float
LOOKUP_TABLE default
5.40137 5.41794 5.47682 5.50863 5.54271 5.57108 5.59898 5.62596 5.65227 
5.67802 5.70297 5.72727 5.7507 5.77347 5.79531 5.81634 5.83636 5.85543 
5.87335 5.89016 5.90569 5.92015 5.93348 5.94595 5.95744 5.96784 5.97655 
5.9836 5.989 5.99008 5.99169 5.97071 5.96787 5.08184 5.07192 5.03237 
5.06858 5.09866 5.10682 5.0963 5.08151 5.06645 5.05159 5.03709 5.02268 
5.00839 4.99405 4.97987 4.96581 4.95208 4.93853 4.92525 4.912 4.89889 
4.88576 4.87272 4.85958 4.84655 4.83365 4.82117 4.80895 4.79763 4.78574 
4.77574 4.76176 4.74689 5.74503 5.80786 5.82982 5.81379 5.79722 5.78601 
5.77494 5.76139 5.74653 5.73029 5.71359 5.69578 5.67755 5.65829 5.6387 
5.6181 5.59721 5.57536 5.55314 5.52978 5.50596 5.48094 5.45532 5.42839 
5.40078 5.37189 5.34252 5.31161 5.28016 5.24382 5.20818 5.15828 5.11748 
4.6961 4.68926 4.67551 4.67347 4.6701 4.66875 4.66816 4.66856 4.671 
4.67486 4.68082 4.6865 4.69143 4.69649 4.70148 4.70718 4.71361 4.72076 
4.72867 4.73733 4.7467 4.75674 4.76739 4.77875 4.79096 4.80442 4.81942 
4.83244 4.83528 4.82949 4.82134 4.85916 4.87868 5.18886 5.19011 5.19075 
5.18908 5.18574 5.18149 5.17659 5.17116 5.16509 5.15861 5.15165 5.14445 
5.13681 5.12894 5.12055 5.11182 5.10244 5.09267 5.08218 5.07129 5.05965 
5.04763 5.03485 5.0217 5.00775 4.99347 4.97834 4.96291 4.94661 4.93006 
4.91243 4.89426 4.87509 4.85539 4.83451 4.8137 4.79251 4.77177 4.75044 
4.72917 4.70704 4.68494 4.66197 4.63904 4.61523 4.59151 4.567 4.54255 
4.51731 4.49218 4.46627 4.44045 4.41388 4.38744 4.36026 4.33319 4.30531 
4.2776 4.24912 4.22083 4.19176 4.16292 4.13333 4.10399 4.07391 4.04411 
4.01362 3.98345 3.95262 3.92215 3.89109 3.86044 3.82924 3.79854 3.76737 
3.73681 3.70587 3.67567 3.64522 3.61558 3.5858 3.55695 3.52813 3.50033 
3.47275 3.44626 3.42014 3.39526 3.37098 3.34807 3.32596 3.3053 3.28555 
3.26734 3.2502 3.23466 3.22026 3.20743 3.19587 3.1859 3.17729 3.17036 
3.16504 3.1615 3.15958 3.15853 3.15826 3.15872 5.19262 3.16498 3.16432 
3.16382 3.16263 3.16089 3.15868 3.15627 3.15373 3.15125 3.14876 3.14643 
3.14424 3.14237 3.14084 3.13982 3.1391 3.13863 3.13812 3.13759 3.1368 
3.13629 3.1369 3.13861 3.14085 3.14355 3.14662 3.1504 3.15488 3.16011 
3.16615 3.173 3.18071 3.18926 3.1988 3.2092 3.22075 3.23314 3.24683 
3.26135 3.27726 3.29392 3.312 3.33077 3.35088 3.37147 3.39328 3.4154 
3.43848 3.46162 3.48549 3.50924 3.53352 3.55746 3.58172 3.60549 3.62935 
3.65256 3.67568 3.69805 3.72021 3.74155 3.7626 3.78277 3.80257 3.82149 
3.83993 3.8575 3.87457 3.89079 3.90644 3.92124 3.93542 3.94869 3.96129 
3.97293 3.98381 3.99369 4.00276 4.01089 4.01841 4.02547 4.03185 4.03615 
4.03697 4.03551 3.16571 4.0373 6.06543 6.06896 6.07276 6.07563 6.07833 
6.08121 6.0843 6.08774 6.09098 6.09435 6.09739 6.10047 6.10303 6.10534 
6.10667 6.10744 6.10657 6.10493 6.10134 6.09681 6.09009 6.08219 6.07197 
6.06049 6.04659 6.03147 6.01392 5.99524 5.97419 5.95214 5.92777 5.90257 
5.87526 5.84728 5.81733 5.78685 5.75458 5.722 5.68785 5.65361 5.61795 
5.5824 5.54512 5.50706 5.46771 5.42889 5.3888 5.34951 5.31041 5.27288 
5.23508 5.19829 5.16102 5.1247 5.0881 5.05259 5.01688 4.98219 4.94727 
4.91335 4.87927 4.84622 4.81315 4.7811 4.74902 4.71799 4.687 4.65698 
4.62701 4.59808 4.56924 4.54142 4.51375 4.48715 4.46075 4.43543 4.41035 
4.38636 4.36269 4.3401 4.31787 4.29671 4.276 4.25638 4.23723 4.21916 
4.20163 4.18513 4.16924 4.15436 4.14017 4.12702 4.1146 4.10318 4.09253 
4.08291 4.0741 4.0663 4.05941 4.05354 4.04863 4.04478 4.04199 4.04013 
4.0388 4.03682 4.03406 4.0318 6.06775 4.03531 5.19145 5.19325 5.19538 
5.19701 5.19769 5.19838 5.1996 5.20153 5.20418 5.20751 5.21146 5.21601 
5.22111 5.22676 5.23296 5.23965 5.24689 5.25455 5.2627 5.27122 5.28023 
5.28956 5.29928 5.30923 5.31951 5.32995 5.34068 5.35144 5.36237 5.37325 
5.38421 5.395 5.40578 5.41627 5.42662 5.43649 5.44605 5.45496 5.46343 
5.47107 5.47822 5.48443 5.49021 5.49502 5.49961 5.50341 5.50736 5.51098 
5.51544 5.52029 5.52673 5.5343 5.54417 5.5557 5.57025 5.5868 5.60667 
5.6286 5.65384 5.68068 5.71018 5.74033 5.772 5.80323 5.83475 5.86494 
5.89427 5.9214 5.9464 5.9685 5.98757 6.00323 6.01568 6.02541 6.03303 
6.03915 6.04406 6.0481 6.05152 6.05464 6.05733 6.05947 6.06089 6.0628 
6.06848 5.19209 5.18827 3.16079 4.03078 5.18388 6.06365 6.05979 6.05924 
6.05704 6.05246 6.04847 6.04496 6.04196 6.03893 6.03565 6.03169 6.02675 
6.02054 6.0127 6.00268 5.98977 5.97358 5.95399 5.93159 5.90653 5.87959 
5.85048 5.82048 5.78904 5.75781 5.72609 5.69587 5.66634 5.63949 5.61428 
5.59241 5.57264 5.55621 5.54178 5.53038 5.52065 5.5132 5.50214 5.50688 
6.0617 4.02561 4.02483 4.02507 4.02591 4.02692 4.02876 4.0316 4.03548 
4.04042 4.04632 4.05326 4.06111 4.06996 4.07963 4.09032 4.10178 4.11424 
4.12742 4.14165 4.15656 4.17249 4.18901 4.20658 4.22467 4.24384 4.26348 
4.28421 4.30538 4.32763 4.35023 4.37391 4.39791 4.42299 4.44832 4.47473 
4.50133 4.52901 4.55682 4.58567 4.61461 4.64458 4.67459 4.70559 4.73663 
4.76871 4.80077 4.83385 4.8669 4.90099 4.93492 4.96984 5.00454 5.04026 
5.07579 5.1124 5.14872 5.186 5.2228 5.26061 5.29815 5.33726 5.37657 
5.41668 5.45552 5.49488 5.53298 5.57029 5.60588 5.64158 5.67584 5.71003 
5.74264 5.77495 5.80546 5.83545 5.86347 5.89082 5.91605 5.94045 5.96252 
5.9836 6.00228 6.01984 6.03496 6.04886 6.06033 6.07054 6.07842 6.0851 
6.08959 6.09314 6.09473 6.09554 6.09471 6.09333 6.09095 6.08835 6.08522 
6.08214 6.07878 6.07566 6.07243 6.06944 6.0666 6.06388 3.15723 3.1533 
3.14903 3.14556 3.14269 3.1401 3.13748 3.13497 3.13243 3.13008 3.12783 
3.1259 3.1243 3.12318 3.12236 3.12181 3.12124 3.12067 3.11997 3.11979 
3.12041 3.12183 3.12358 3.12591 3.12889 3.13279 3.13747 3.14296 3.14927 
3.15642 3.16441 3.17323 3.18303 3.19365 3.20541 3.21799 3.23184 3.24649 
3.26252 3.27928 3.29745 3.31628 3.33644 3.35708 3.37893 3.40109 3.42419 
3.44735 3.47123 3.49499 3.51929 3.54324 3.5675 3.59128 3.61513 3.63834 
4.00166 3.9942 3.98623 3.97736 3.96774 3.9571 3.94571 3.93334 3.92027 
3.90627 3.89162 3.8761 3.85998 3.843 3.8255 3.80712 3.78825 3.76849 
3.74833 3.72731 3.70598 3.68383 3.66147 5.18263 5.18081 5.17878 5.17556 
5.17146 5.16678 5.16161 5.15609 5.15009 5.14383 5.13716 5.13026 5.1229 
5.11527 5.10709 5.09853 5.08928 5.07962 5.0692 5.05838 5.04678 5.0348 
5.02205 5.00892 4.99498 4.98071 4.9656 4.95017 4.93388 4.91734 4.89971 
4.88155 4.86238 4.84268 4.8218 4.801 4.77981 4.75907 4.73774 4.71648 
4.69435 4.67225 4.64928 4.62635 4.60255 4.57883 4.55432 4.52987 4.50463 
4.47949 4.45359 4.42777 4.4012 4.37476 4.34758 4.32051 4.29263 4.26493 
4.23644 4.20815 4.17909 4.15025 4.12066 4.09132 4.06123 4.03144 4.00095 
3.97078 3.93995 3.90948 3.87843 3.84777 3.81657 3.78588 3.75471 3.72415 
3.69321 3.66301 3.63257 3.60293 3.57314 3.5443 3.51548 3.48768 3.4601 
3.43361 3.4075 3.38262 3.35834 3.33544 3.31332 3.29267 3.27293 3.25472 
3.23759 3.22205 3.20766 3.19484 3.1833 3.17336 3.16482 3.15797 3.15276 
3.14941 3.14801 3.14821 3.15015 3.15303 3.14377 4.00998 4.02526 4.02155 
4.01567 4.00879 4.72483 3.97754 3.98452 3.99255 4.00143 3.98617 3.9934 
4.01132 4.01753 4.02699 3.98914 4.00687 4.00468 3.97857 4.0039 3.98348 
4.0113 4.00759 4.00507 3.97726 3.9761 3.9794 3.98662 3.98436 3.98355 
3.98687 3.99452 3.9812 3.96953 3.96633 3.9624 3.96264 3.95273 3.9571 
3.97257 3.96107 3.95369 3.97038 3.94459 3.95404 3.96274 3.9388 3.94675 
3.93032 3.9206 3.93396 3.91029 3.89871 3.92264 3.92258 3.93308 3.94235 
3.95089 3.95851 3.96536 3.95005 3.94315 3.93605 3.92742 3.91861 3.9147 
3.93877 3.94555 3.94523 3.95248 3.93833 3.93178 3.93184 3.92324 3.92334 
3.91501 3.91813 3.99419 4.022 4.01616 3.98798 4.0008 4.02894 4.03674 
4.04564 4.0553 4.02768 4.01763 4.00903 4.02535 4.01617 4.00835 4.00128 
3.99532 3.99051 3.96872 3.96516 3.97415 3.97967 3.99479 3.98752 3.9781 
3.95518 3.95859 3.95145 3.948 3.95751 3.96437 3.96975 3.96287 3.97154 
3.97836 3.98509 3.98929 4.09006 4.0775 4.06606 4.03814 4.04996 4.04606 
4.03486 4.01359 4.00481 4.00403 3.99565 3.99745 3.99127 3.87311 3.88659 
3.91014 3.89708 3.88616 3.89903 3.91144 3.89738 3.90797 3.88482 3.87257 
3.86915 3.90417 3.90442 3.89439 3.89371 3.88178 3.88126 3.87013 3.85561 
3.82505 3.84114 3.85486 3.85814 3.87201 3.85937 3.88292 3.86825 3.84419 
3.85256 3.82894 3.81227 3.83646 3.84178 3.85758 3.84432 3.84233 3.82595 
3.81114 3.80978 3.81282 3.82814 3.82588 3.80843 3.80184 3.81929 3.79551 
3.77751 3.78327 3.75933 3.74002 3.76449 3.68202 3.7032 3.72447 3.7445 
3.72032 3.69983 3.77211 3.79114 3.77811 3.79489 3.77515 4.14851 4.13244 
4.11756 4.1032 4.07578 4.06225 4.08983 4.10508 4.16496 4.13763 3.94123 
3.9447 3.9384 3.93471 3.94463 3.95083 3.9563 3.95033 3.96501 3.97199 
3.96624 3.95912 3.98292 3.97726 3.9857 3.96935 3.95839 3.95103 3.94225 
3.9364 3.9301 3.92634 3.92225 3.92859 3.93475 3.91838 4.04138 4.0501 
4.0703 4.05712 4.03594 4.0257 4.08289 4.06179 4.02647 4.01677 4.01058 
4.02 4.00437 4.01405 4.00861 3.99889 4.02932 4.01649 4.02401 4.03499 
4.04028 4.04605 4.05242 4.03536 4.06356 4.06949 4.07798 4.09802 4.11212 
4.09108 4.08176 4.07545 4.09508 4.10094 4.10924 4.12914 4.12084 4.14464 
4.12365 4.11439 4.10816 4.10275 4.0773 4.08436 4.08937 4.06987 4.05769 
4.05255 4.06473 4.00122 3.99117 3.97808 3.97127 3.96223 3.95124 3.94357 
3.98437 3.99472 4.00999 4.0216 4.02783 4.03899 4.04524 4.0578 4.05178 
4.09774 4.09105 4.08521 4.07126 4.11259 3.90773 3.91188 3.90224 3.89774 
3.90877 3.91539 3.92462 3.9032 3.89657 3.88982 3.88536 3.87369 3.8785 
3.85943 3.86415 3.8512 3.84612 3.87124 3.84247 3.85838 3.86569 3.87817 
3.8923 3.88531 3.90166 3.93216 3.94375 3.95252 3.94138 3.93359 3.92441 
3.93258 3.91249 3.9207 3.91029 3.96169 3.95333 3.94177 3.93186 3.9218 
3.91841 3.88133 3.8965 3.9084 3.89648 3.88789 3.87549 3.88451 3.83495 
3.83003 3.81516 3.82051 3.79295 3.79192 3.77664 3.75672 3.75559 3.75849 
3.74035 3.75347 3.73737 3.739 3.71741 3.67396 3.69669 3.71618 3.71913 
3.73291 3.71295 3.69969 3.69098 3.67876 3.65715 3.66993 3.65638 3.67697 
3.65337 3.65531 3.67528 3.69843 3.66043 3.5909 3.61396 3.63736 3.6596 
3.6349 3.61226 3.64661 3.63225 3.61089 3.62474 3.62923 3.58268 3.60786 
3.61001 3.63081 3.58553 3.60022 3.58911 3.5656 3.56676 3.49476 3.51853 
3.54312 3.51768 3.54172 3.49336 3.46912 3.47015 3.39925 3.42227 3.44654 
3.42065 3.44474 3.39665 3.37307 3.37581 3.31102 3.33153 3.35376 3.32723 
3.34989 3.30531 3.28405 3.29048 3.26386 3.24447 3.2718 3.273 3.29498 
3.31476 3.33844 3.35959 3.38455 3.40667 3.43235 3.45511 3.48099 3.50397 
3.52972 3.55255 3.57783 3.56373 3.53749 3.51546 3.48868 3.4666 3.43964 
3.41781 3.39103 3.36975 3.34362 3.32327 3.29827 3.27918 3.27577 3.77517 
3.7945 3.81042 3.82807 3.83574 3.8497 3.80246 3.79728 3.78092 3.78655 
3.76131 3.76679 3.7495 3.74354 3.80258 3.81798 3.82867 3.84599 3.8599 
3.86885 3.8554 3.90699 3.89174 3.87887 3.86794 3.9064 3.98201 3.9929 
4.00083 3.98544 3.97492 3.96658 3.9775 3.95535 3.9663 3.95687 3.94546 
4.01262 4.00507 3.99421 3.98528 3.97261 4.00311 4.01203 4.02255 4.03013 
4.04309 4.03592 4.02541 4.01694 4.03684 4.04534 4.05547 4.0627 4.07679 
4.06995 4.0598 4.05176 4.03996 4.02511 4.0047 3.93247 3.94383 3.93296 
3.92111 3.94922 3.96004 3.97264 3.96234 3.99096 3.9807 3.99497 4.01535 
4.03071 4.01734 4.00211 3.98112 3.93496 3.91815 3.9059 3.89357 3.94801 
3.93639 3.92276 3.95537 3.96696 3.97014 3.99114 4.00696 3.97642 3.87596 
3.89338 3.90688 3.88939 3.87715 3.86188 3.85103 3.838 3.82317 3.81329 
3.84767 3.83626 3.81769 3.80405 3.7943 3.78311 3.76636 3.75787 3.78786 
3.77753 3.757 3.72231 3.72811 3.7096 3.70328 3.71837 3.73694 3.74528 
3.7273 3.70471 3.69599 3.68668 3.68057 3.66707 3.67626 3.68563 3.6526 
3.60724 3.63194 3.62236 3.64282 3.63644 3.61539 3.64171 3.66168 3.67455 
3.51272 3.53868 3.56043 3.58589 3.57593 3.59699 3.59036 3.5844 3.56302 
3.56075 3.56866 3.54284 3.53654 3.53477 3.51249 3.51484 3.48605 3.48782 
3.46608 3.46368 3.49444 3.52076 3.52831 3.54971 3.61664 3.59602 3.60905 
3.53693 3.5625 3.58399 3.5701 3.54905 3.59577 3.62124 3.64151 3.66612 
3.68561 3.70909 3.717 3.73895 3.74976 3.76717 3.72762 3.74249 3.76397 
3.78142 3.80151 3.81349 3.82902 3.79327 3.77652 3.75487 3.73698 3.72388 
3.6978 3.65436 3.63003 3.63721 3.6577 3.68149 3.70113 3.71402 3.69515 
3.75432 3.80603 3.82629 3.84226 3.86117 3.84292 3.85773 3.87584 3.86299 
3.92043 3.90756 3.89003 3.87595 3.84497 3.8295 3.82328 3.80994 3.79318 
3.80727 3.77225 3.7862 3.76908 3.85695 3.84176 3.8214 3.80513 3.7889 
3.82721 4.21231 4.23955 4.22 4.20067 4.18265 4.15502 4.17339 4.16352 
4.18039 4.1595 4.14377 4.20108 4.1924 4.23283 4.30386 4.28147 4.26041 
4.25422 4.27631 4.2991 4.32635 4.32265 4.3502 4.37404 4.34676 4.39928 
4.37172 4.39716 4.42444 4.381 4.35364 4.33179 4.30599 4.28531 4.26114 
4.24171 4.21926 4.19844 4.18146 4.24038 4.2222 4.21435 4.18926 4.13563 
4.15028 4.14413 4.12989 4.1678 4.17347 4.18315 4.20875 4.22518 4.23126 
4.2035 4.17805 4.12433 4.13888 4.13395 4.11943 4.1576 4.16241 4.17321 
4.16698 4.151 4.12749 4.12182 4.10675 4.16149 4.14532 4.13734 4.12124 
4.13065 4.10706 4.1137 4.09846 4.09152 4.14724 4.15366 4.1792 4.2582 
4.26593 4.28533 4.27625 4.27021 4.25266 4.26537 4.24756 4.22022 4.21546 
4.19879 4.24291 4.26066 4.25483 4.23672 4.20943 4.19239 4.18686 4.20407 
4.23131 4.24958 4.27866 4.42346 4.45101 4.47744 4.45015 4.43284 4.40402 
4.38356 4.3619 4.33307 4.31255 4.37464 4.30495 4.32406 4.31813 4.29951 
4.34916 4.35446 4.36885 4.40144 4.50562 4.53297 4.50535 4.47777 4.51238 
4.48721 4.45695 4.43658 4.41388 4.46834 4.49205 4.48321 4.46116 4.42772 
4.40657 4.42203 4.45617 4.47768 4.45155 4.33402 4.33983 4.34431 4.31343 
4.29452 4.28993 4.30878 4.28394 4.30314 4.29797 4.36426 4.35972 4.35425 
4.34918 4.32883 4.38169 4.04033 4.05308 4.06238 4.07364 4.08177 4.09725 
4.08958 4.0782 4.06944 4.05654 4.0467 4.02992 4.07158 4.08151 4.09374 
4.10261 4.11345 4.13038 4.13779 4.15618 4.22393 4.19655 4.19033 4.17273 
4.24232 4.23629 4.21768 4.22756 4.20898 4.18123 4.16368 4.17405 4.20174 
4.22061 4.19172 4.14574 4.11938 4.11101 4.09859 4.08925 4.11601 4.12546 
4.13724 4.15539 4.16349 4.18352 4.20259 4.21044 4.19108 4.17219 4.14342 
4.1345 4.16312 4.18243 4.21287 4.44193 4.44743 4.41323 4.3967 4.4176 
4.39237 4.38675 4.40793 4.403 4.46916 4.47336 4.5087 4.53439 4.56199 
4.59072 4.56341 4.54397 4.57016 4.54992 4.52519 4.60307 4.62351 4.65077 
4.62095 4.59338 4.65442 4.74967 4.77689 4.74508 4.71278 4.68196 4.68554 
4.71756 4.78265 4.57737 4.58443 4.60995 4.63012 4.54112 4.51808 4.51323 
4.53567 4.5726 4.59584 4.60117 4.63394 4.70189 4.70891 4.72738 4.6921 
4.66419 4.64563 4.672 4.63862 4.66319 4.65788 4.75612 4.73603 4.72711 
4.72174 4.69718 4.71756 4.84966 4.8772 4.84291 4.81014 4.81566 4.82208 
4.79251 4.77403 4.80193 4.76694 4.83396 4.8411 4.85959 4.8899 4.88359 
4.91087 4.91842 4.946 4.98037 4.95302 5.01626 5.05144 5.02409 4.98869 
4.95931 4.9284 4.90986 4.86968 4.7929 4.78742 4.76218 4.82908 4.855 
4.86054 4.89774 4.56812 4.53147 4.52747 4.50478 4.59174 4.58781 4.56433 
4.58286 4.55902 4.52248 4.49939 4.46402 4.45924 4.43704 4.49468 4.5178 
4.5544 4.57826 4.61588 4.30799 4.31603 4.32196 4.29098 4.27155 4.26546 
4.28509 4.25711 4.27669 4.26992 4.25011 4.34242 4.33664 4.32856 4.32194 
4.30119 4.35489 4.36153 4.36927 4.37507 4.39649 4.39083 4.38301 4.37655 
4.41097 4.43061 4.4529 4.44736 4.42496 4.43976 4.41747 4.43344 4.42457 
4.24047 4.26015 4.25253 4.23255 4.28425 4.29191 4.31253 4.30508 4.34594 
4.36744 4.36013 4.33845 4.40229 4.39498 4.41745 4.38504 4.34975 4.32823 
4.29436 4.27372 4.24143 4.22163 4.23299 4.26519 4.28613 4.25339 3.38851 
3.41491 3.43709 3.43885 3.41733 3.39022 3.36918 3.36681 3.34258 3.34102 
3.32019 3.32239 3.2955 3.29675 3.27748 3.30399 3.91039 3.9272 3.94007 
3.95474 3.94257 3.92566 3.91236 3.89634 3.93481 3.94811 3.96427 3.98066 
3.99212 3.96437 3.95184 3.93421 3.87813 3.89404 3.87966 3.86298 3.90293 
3.91732 3.92069 3.90182 3.88417 3.86004 3.84348 3.84465 3.86879 3.88734 
3.84892 3.41638 3.44252 3.46447 3.4907 3.48006 3.50153 3.47225 3.44576 
3.45296 3.43181 3.42375 3.52258 3.50125 3.51518 3.52805 3.54901 3.57503 
3.54524 3.56655 3.59161 3.61263 3.62657 3.65148 3.67111 3.60642 3.58097 
3.56054 3.60149 3.72683 3.74928 3.76742 3.74676 3.73218 3.71321 3.72868 
3.69004 3.7053 3.68642 3.67026 3.7835 3.7663 3.74365 3.72566 3.70786 
3.74953 3.81187 3.83265 3.80755 3.82386 3.80649 3.78924 3.85201 3.86737 
3.89439 3.20895 3.22627 3.25321 3.23664 3.21928 3.23516 3.25509 3.2383 
3.25586 3.21724 3.2013 3.1967 3.25266 3.25332 3.2353 3.23434 3.21329 
3.21333 3.19686 3.17741 3.14761 3.16346 3.17814 3.18283 3.20169 3.19299 
3.22024 3.20572 3.1778 3.19153 3.16409 3.15085 3.17905 3.17265 3.18773 
3.16865 3.16283 3.14629 3.13355 3.13507 3.14058 3.153 3.16011 3.14762 
3.1218 3.12756 3.11673 3.13628 3.12788 3.13927 3.167 3.15645 3.11851 
3.14651 3.13777 3.109 3.12974 3.08253 3.08824 3.09387 3.10153 3.12274 
3.11652 3.11124 3.08966 3.09588 3.10115 3.10929 3.11668 3.12652 3.10637 
3.09713 3.0892 3.08164 3.07602 3.07019 3.06306 3.06909 3.07493 3.08267 
3.09089 3.10024 3.11097 3.10892 3.11986 3.09795 3.08886 3.08036 3.0731 
3.06691 3.06133 3.06464 3.09738 3.09988 3.10293 3.10669 3.07846 3.07445 
3.07179 3.06935 3.09557 3.09415 3.09412 3.09436 3.06694 3.06795 3.06669 
3.06658 3.09451 3.09649 3.09572 3.09497 3.06739 3.06683 3.06834 3.06955 
3.09767 3.1029 3.1009 3.09902 3.07292 3.07112 3.07505 3.07736 3.10534 
3.6413 3.66504 3.6846 3.66221 3.64631 3.62594 3.6428 3.70219 3.68358 
3.61803 3.59827 3.58076 3.62135 3.64065 3.65959 3.66636 3.68549 3.70839 
3.72714 3.7461 3.76871 3.78576 3.7676 3.79475 3.815 3.8311 3.79337 
3.73347 3.75546 3.77325 3.72843 3.70527 3.68722 3.77667 3.7545 3.73736 
3.71526 3.78453 3.4419 3.46757 3.48937 3.47444 3.45307 3.50178 3.48083 
3.42641 3.40537 3.39466 3.38367 3.40463 3.39741 3.37579 3.42039 3.43399 
3.45464 3.45237 3.47349 3.49864 3.51997 3.53481 3.5144 3.48876 3.46856 
3.44333 3.42768 3.4082 3.39517 3.37911 3.36899 3.35697 3.34993 3.32891 
3.33648 3.35873 3.34782 3.3231 3.33336 3.31386 3.30284 3.29113 3.31075 
3.28386 3.26038 3.22014 3.2416 3.24859 3.26687 3.26047 3.27944 3.28975 
3.27146 3.34989 3.37424 3.38809 3.40707 3.42367 3.39919 3.38318 3.36313 
3.34388 3.32981 3.36339 3.3803 3.40327 3.55341 3.57731 3.59738 3.57325 
3.55611 3.53532 3.55345 3.5108 3.52849 3.50887 3.49022 3.61638 3.5973 
3.57308 3.55416 3.5335 3.5816 3.51793 3.53994 3.55891 3.53026 3.50996 
3.4843 3.46612 3.44601 3.4652 3.42267 3.44138 3.42295 3.46772 3.49052 
3.51171 3.58101 3.60408 3.62222 3.64562 3.66381 3.64325 3.62391 3.67464 
3.69304 3.71486 3.69759 3.74603 4.1505 4.12121 4.10294 4.07546 4.05798 
4.0324 4.01577 4.0043 4.02158 3.98877 4.00593 3.99412 3.97624 4.03219 
4.05015 4.06521 4.04709 4.03901 4.02034 4.00421 3.97422 3.99149 3.96449 
3.97719 3.95942 3.94589 4.01078 4.02273 4.05154 4.06703 4.07828 4.09256 
4.11146 4.09694 4.08638 4.11612 4.1268 4.14062 4.16022 4.1696 4.14616 
4.13611 4.1209 4.10116 4.07067 4.05939 4.03949 4.08975 4.1102 4.09398 
4.07378 4.04263 4.0229 3.99338 3.98065 3.96061 3.93277 3.94637 3.92791 
3.91341 4.01011 4.03067 4.06172 4.08277 4.11528 4.34414 4.35684 4.36566 
4.37698 4.34167 4.31994 4.3994 4.40729 4.44373 4.68358 4.68898 4.69271 
4.65379 4.6295 4.62577 4.64989 4.62045 4.64488 4.64027 4.71365 4.70851 
4.70383 4.67894 4.74832 5.16181 5.1243 5.08828 5.06064 5.0969 5.0304 
4.99885 4.98029 4.9391 4.9027 4.92988 4.92426 4.97312 5.00086 5.0101 
4.99524 4.96816 4.96357 4.81496 4.8205 4.82441 4.78313 4.75759 4.75379 
4.77915 4.85059 4.84657 4.77389 4.76911 4.74357 4.81008 4.83638 4.84124 
4.87868 4.88363 4.88912 4.89308 4.91987 4.91588 4.91057 4.90576 4.94939 
3.30081 3.32197 3.34067 3.32012 3.30669 3.28774 3.30198 3.26629 3.24915 
3.23893 3.22633 3.20962 3.203 3.22153 3.2323 3.24879 3.26306 3.27983 
3.28345 3.30086 3.31737 3.33913 3.35696 3.28097 3.23113 3.24836 3.26413 
3.2429 3.22932 3.21216 3.16955 3.18653 3.20214 3.18974 3.18386 3.16863 
3.17476 3.15212 3.15754 3.14437 3.13884 3.19699 3.17934 3.16594 3.1558 
3.19629 3.21351 3.22773 3.26595 3.24818 3.23467 3.21712 3.19645 3.20987 
3.18235 3.16753 3.10243 3.11371 3.12498 3.12993 3.11863 3.10694 3.09751 