# vtk DataFile Version 5.1
vtk output
ASCII
DATASET POLYDATA
POINTS 6242 float
-1.314 -0.1347 0.6 -1.314 -0.113241 0.6 -1.314 -0.0915027 0.6 
-1.314 -0.0692662 0.6 -1.314 -0.0464113 0.6 -1.314 -0.0229288 0.6 
-1.314 0.00109675 0.6 -1.314 0.0255304 0.6 -1.314 0.0502333 0.6 
-1.314 0.0750928 0.6 -1.314 0.100033 0.6 -1.314 0.125011 0.6 
-1.314 0.150003 0.6 -1.314 0.175001 0.6 -1.314 0.2 0.6 
-1.314 0.225 0.6 -1.314 0.25 0.6 -1.314 0.275 0.6 
-1.314 0.3 0.6 -1.314 0.325 0.6 -1.314 0.35 0.6 
-1.314 0.374998 0.6 -1.314 0.399994 0.6 -1.314 0.424979 0.6 
-1.314 0.449942 0.6 -1.314 0.474855 0.6 -1.314 0.49967 0.6 
-1.314 0.524318 0.6 -1.314 0.548709 0.6 -1.314 0.572756 0.6 
-1.314 0.596402 0.6 -1.314 0.619647 0.6 -1.314 0.642566 0.6 
-1.314 0.6653 0.6 -1.29156 -0.1347 0.6 -1.26892 -0.1347 0.6 
-1.24591 -0.1347 0.6 -1.22245 -0.1347 0.6 -1.19853 -0.1347 0.6 
-1.17422 -0.1347 0.6 -1.14962 -0.1347 0.6 -1.12483 -0.1347 0.6 
-1.09993 -0.1347 0.6 -1.07498 -0.1347 0.6 -1.04999 -0.1347 0.6 
-1.025 -0.1347 0.6 -1 -0.1347 0.6 -0.975 -0.1347 0.6 
-0.95 -0.1347 0.6 -0.925 -0.1347 0.6 -0.9 -0.1347 0.6 
-0.875 -0.1347 0.6 -0.85 -0.1347 0.6 -0.825001 -0.1347 0.6 
-0.800003 -0.1347 0.6 -0.77501 -0.1347 0.6 -0.75003 -0.1347 0.6 
-0.725085 -0.1347 0.6 -0.700212 -0.1347 0.6 -0.675483 -0.1347 0.6 
-0.650999 -0.1347 0.6 -0.626887 -0.1347 0.6 -0.603273 -0.1347 0.6 
-0.580234 -0.1347 0.6 -0.557764 -0.1347 0.6 -0.535752 -0.1347 0.6 
-0.514 -0.1347 0.6 -1.29156 0.6653 0.6 -1.26892 0.6653 0.6 
-1.24591 0.6653 0.6 -1.22245 0.6653 0.6 -1.19853 0.6653 0.6 
-1.17422 0.6653 0.6 -1.14962 0.6653 0.6 -1.12483 0.6653 0.6 
-1.09993 0.6653 0.6 -1.07498 0.6653 0.6 -1.04999 0.6653 0.6 
-1.025 0.6653 0.6 -1 0.6653 0.6 -0.975 0.6653 0.6 
-0.95 0.6653 0.6 -0.925 0.6653 0.6 -0.9 0.6653 0.6 
-0.875 0.6653 0.6 -0.85 0.6653 0.6 -0.825 0.6653 0.6 
-0.800003 0.6653 0.6 -0.77501 0.6653 0.6 -0.75003 0.6653 0.6 
-0.725085 0.6653 0.6 -0.700212 0.6653 0.6 -0.675483 0.6653 0.6 
-0.650999 0.6653 0.6 -0.626887 0.6653 0.6 -0.603273 0.6653 0.6 
-0.580234 0.6653 0.6 -0.557763 0.6653 0.6 -0.535752 0.6653 0.6 
-0.514 0.6653 0.6 -0.514 -0.113241 0.6 -0.514 -0.0915027 0.6 
-0.514 -0.0692662 0.6 -0.514 -0.0464112 0.6 -0.514 -0.0229287 0.6 
-0.514 0.00109677 0.6 -0.514 0.0255305 0.6 -0.514 0.0502333 0.6 
-0.514 0.0750928 0.6 -0.514 0.100033 0.6 -0.514 0.12501 0.6 
-0.514 0.150003 0.6 -0.514 0.175001 0.6 -0.514 0.2 0.6 
-0.514 0.225 0.6 -0.514 0.25 0.6 -0.514 0.275 0.6 
-0.514 0.3 0.6 -0.514 0.325 0.6 -0.514 0.35 0.6 
-0.514 0.374998 0.6 -0.514 0.399994 0.6 -0.514 0.424979 0.6 
-0.514 0.449942 0.6 -0.514 0.474855 0.6 -0.514 0.49967 0.6 
-0.514 0.524318 0.6 -0.514 0.548709 0.6 -0.514 0.572756 0.6 
-0.514 0.596402 0.6 -0.514 0.619647 0.6 -0.514 0.642566 0.6 
-2.95593 -2.25 0.6 -2.91015 -2.25 0.6 -2.86165 -2.25 0.6 
-2.81055 -2.25 0.6 -2.75795 -2.25 0.6 -2.70513 -2.25 0.6 
-2.6529 -2.25 0.6 -2.60145 -2.25 0.6 -2.55065 -2.25 0.6 
-2.50026 -2.25 0.6 -2.4501 -2.25 0.6 -2.40003 -2.25 0.6 
-2.35001 -2.25 0.6 -2.3 -2.25 0.6 -2.25 -2.25 0.6 
-2.2 -2.25 0.6 -2.15 -2.25 0.6 -2.1 -2.25 0.6 
-2.05 -2.25 0.6 -2 -2.25 0.6 -1.95 -2.25 0.6 
-1.9 -2.25 0.6 -1.85 -2.25 0.6 -1.8 -2.25 0.6 
-1.75 -2.25 0.6 -1.7 -2.25 0.6 -1.65 -2.25 0.6 
-1.6 -2.25 0.6 -1.55 -2.25 0.6 -1.5 -2.25 0.6 
-1.45 -2.25 0.6 -1.4 -2.25 0.6 -1.35 -2.25 0.6 
-1.3 -2.25 0.6 -1.25 -2.25 0.6 -1.2 -2.25 0.6 
-1.15 -2.25 0.6 -1.1 -2.25 0.6 -1.05 -2.25 0.6 
-1 -2.25 0.6 -0.95 -2.25 0.6 -0.9 -2.25 0.6 
-0.85 -2.25 0.6 -0.8 -2.25 0.6 -0.75 -2.25 0.6 
-0.7 -2.25 0.6 -0.65 -2.25 0.6 -0.6 -2.25 0.6 
-0.55 -2.25 0.6 -0.5 -2.25 0.6 -0.45 -2.25 0.6 
-0.4 -2.25 0.6 -0.35 -2.25 0.6 -0.3 -2.25 0.6 
-0.25 -2.25 0.6 -0.2 -2.25 0.6 -0.15 -2.25 0.6 
-0.1 -2.25 0.6 -0.0499998 -2.25 0.6 2.90599e-07 -2.25 0.6 
0.0499999 -2.25 0.6 0.0999997 -2.25 0.6 0.15 -2.25 0.6 
0.2 -2.25 0.6 0.25 -2.25 0.6 0.3 -2.25 0.6 
0.35 -2.25 0.6 0.4 -2.25 0.6 0.45 -2.25 0.6 
0.5 -2.25 0.6 0.55 -2.25 0.6 0.6 -2.25 0.6 
0.65 -2.25 0.6 0.7 -2.25 0.6 0.75 -2.25 0.6 
0.8 -2.25 0.6 0.85 -2.25 0.6 0.9 -2.25 0.6 
0.95 -2.25 0.6 1 -2.25 0.6 1.05 -2.25 0.6 
1.1 -2.25 0.6 1.15 -2.25 0.6 1.2 -2.25 0.6 
1.25 -2.25 0.6 1.3 -2.25 0.6 1.35 -2.25 0.6 
1.4 -2.25 0.6 1.45 -2.25 0.6 1.5 -2.25 0.6 
1.55 -2.25 0.6 1.6 -2.25 0.6 1.65 -2.25 0.6 
1.7 -2.25 0.6 1.75 -2.25 0.6 1.8 -2.25 0.6 
1.85001 -2.25 0.6 1.90003 -2.25 0.6 1.95009 -2.25 0.6 
2.00026 -2.25 0.6 2.05065 -2.25 0.6 2.10145 -2.25 0.6 
2.1529 -2.25 0.6 2.20513 -2.25 0.6 2.25795 -2.25 0.6 
2.31055 -2.25 0.6 2.36165 -2.25 0.6 2.41015 -2.25 0.6 
2.45593 -2.25 0.6 -3 -2.25 0.6 2.5 -2.25 0.6 
2.5 -2.21035 0.6 2.5 -2.16898 0.6 2.5 -2.12474 0.6 
2.5 -2.07747 0.6 2.5 -2.02793 0.6 2.5 -1.97728 0.6 
2.5 -1.92641 0.6 2.5 -1.87574 0.6 2.5 -1.82533 0.6 
2.5 -1.77513 0.6 2.5 -1.72503 0.6 2.5 -1.67497 0.6 
2.5 -1.62491 0.6 2.5 -1.61486 0.6 2.5 -1.57484 0.6 
2.5 -1.52474 0.6 2.5 -1.47462 0.6 2.5 -1.42451 0.6 
2.5 -1.37444 0.6 2.5 -1.3744 0.6 2.5 -1.32444 0.6 
2.5 -1.27449 0.6 2.5 -1.22459 0.6 2.5 -1.1747 0.6 
2.5 -1.12481 0.6 2.5 -1.07489 0.6 2.5 -1.02494 0.6 
2.5 -0.97497 0.6 2.5 -0.924986 0.6 2.5 -0.874994 0.6 
2.5 -0.824998 0.6 2.5 -0.774999 0.6 2.5 -0.725001 0.6 
2.5 -0.675002 0.6 2.5 -0.625005 0.6 2.5 -0.575009 0.6 
2.5 -0.525015 0.6 2.5 -0.457198 0.6 2.5 -0.425035 0.6 
2.5 -0.475024 0.6 2.5 -0.375049 0.6 2.5 -0.325066 0.6 
2.5 -0.275085 0.6 2.5 -0.225108 0.6 2.5 -0.17513 0.6 
2.5 -0.125143 0.6 2.5 -0.0751416 0.6 2.5 -0.0251226 0.6 
2.5 0.024907 0.6 2.5 0.0749376 0.6 2.5 0.124963 0.6 
2.5 0.17498 0.6 2.5 0.17505 0.6 2.5 0.22499 0.6 
2.5 0.274995 0.6 2.5 0.324998 0.6 2.5 0.374999 0.6 
2.5 0.424999 0.6 2.5 0.475 0.6 2.5 0.525 0.6 
2.5 0.575 0.6 2.5 0.625 0.6 2.5 0.675 0.6 
2.5 0.725 0.6 2.5 0.775 0.6 2.5 0.825 0.6 
2.5 0.875 0.6 2.5 0.925 0.6 2.5 0.975 0.6 
2.5 1.025 0.6 2.5 1.075 0.6 2.5 1.125 0.6 
2.5 1.175 0.6 2.5 1.225 0.6 2.5 1.275 0.6 
2.5 1.325 0.6 2.5 1.375 0.6 2.5 1.42502 0.6 
2.5 1.47505 0.6 2.5 1.52514 0.6 2.5 1.57534 0.6 
2.5 1.62574 0.6 2.5 1.67641 0.6 2.5 1.72728 0.6 
2.5 1.77793 0.6 2.5 1.82747 0.6 2.5 1.87474 0.6 
2.5 1.91898 0.6 2.5 1.96035 0.6 2.5 2 0.6 
-2.91015 2 0.6 -2.95593 2 0.6 -2.86165 2 0.6 
-2.81055 2 0.6 -2.75795 2 0.6 -2.70513 2 0.6 
-2.6529 2 0.6 -2.60145 2 0.6 -2.55065 2 0.6 
-2.50026 2 0.6 -2.4501 2 0.6 -2.40003 2 0.6 
-2.35001 2 0.6 -2.3 2 0.6 -2.25 2 0.6 
-2.2 2 0.6 -2.15 2 0.6 -2.1 2 0.6 
-2.05 2 0.6 -2 2 0.6 -1.95 2 0.6 
-1.9 2 0.6 -1.85 2 0.6 -1.8 2 0.6 
-1.75 2 0.6 -1.7 2 0.6 -1.65 2 0.6 
-1.6 2 0.6 -1.55 2 0.6 -1.5 2 0.6 
-1.45 2 0.6 -1.4 2 0.6 -1.35 2 0.6 
-1.3 2 0.6 -1.25 2 0.6 -1.2 2 0.6 
-1.15 2 0.6 -1.1 2 0.6 -1.05 2 0.6 
-1 2 0.6 -0.95 2 0.6 -0.9 2 0.6 
-0.85 2 0.6 -0.8 2 0.6 -0.75 2 0.6 
-0.7 2 0.6 -0.65 2 0.6 -0.6 2 0.6 
-0.55 2 0.6 -0.5 2 0.6 -0.45 2 0.6 
-0.4 2 0.6 -0.35 2 0.6 -0.3 2 0.6 
-0.25 2 0.6 -0.2 2 0.6 -0.15 2 0.6 
-0.1 2 0.6 -0.05 2 0.6 1.72426e-07 2 0.6 
0.0499998 2 0.6 0.0999997 2 0.6 0.15 2 0.6 
0.2 2 0.6 0.25 2 0.6 0.3 2 0.6 
0.35 2 0.6 0.4 2 0.6 0.45 2 0.6 
0.5 2 0.6 0.55 2 0.6 0.6 2 0.6 
0.65 2 0.6 0.7 2 0.6 0.75 2 0.6 
0.8 2 0.6 0.85 2 0.6 0.9 2 0.6 
0.95 2 0.6 1 2 0.6 1.05 2 0.6 
1.1 2 0.6 1.15 2 0.6 1.2 2 0.6 
1.25 2 0.6 1.3 2 0.6 1.35 2 0.6 
1.4 2 0.6 1.45 2 0.6 1.5 2 0.6 
1.55 2 0.6 1.6 2 0.6 1.65 2 0.6 
1.7 2 0.6 1.75 2 0.6 1.8 2 0.6 
1.85001 2 0.6 1.90003 2 0.6 1.95009 2 0.6 
2.00026 2 0.6 2.05065 2 0.6 2.10145 2 0.6 
2.1529 2 0.6 2.20513 2 0.6 2.25795 2 0.6 
2.31055 2 0.6 2.36165 2 0.6 2.41015 2 0.6 
2.45593 2 0.6 -3 2 0.6 -3 -2.16898 0.6 
-3 -2.21035 0.6 -3 -2.12474 0.6 -3 -2.07747 0.6 
-3 -2.02793 0.6 -3 -1.97728 0.6 -3 -1.92641 0.6 
-3 -1.87574 0.6 -3 -1.82534 0.6 -3 -1.77514 0.6 
-3 -1.72505 0.6 -3 -1.67502 0.6 -3 -1.625 0.6 
-3 -1.575 0.6 -3 -1.525 0.6 -3 -1.475 0.6 
-3 -1.425 0.6 -3 -1.375 0.6 -3 -1.325 0.6 
-3 -1.275 0.6 -3 -1.225 0.6 -3 -1.175 0.6 
-3 -1.125 0.6 -3 -1.075 0.6 -3 -1.025 0.6 
-3 -0.975 0.6 -3 -0.925 0.6 -3 -0.875 0.6 
-3 -0.825 0.6 -3 -0.775 0.6 -3 -0.725 0.6 
-3 -0.675 0.6 -3 -0.625 0.6 -3 -0.575 0.6 
-3 -0.525 0.6 -3 -0.475 0.6 -3 -0.425 0.6 
-3 -0.375 0.6 -3 -0.325 0.6 -3 -0.275 0.6 
-3 -0.224999 0.6 -3 -0.174996 0.6 -3 -0.124989 0.6 
-3 -0.0749742 0.6 -3 -0.0249448 0.6 -3 0.0751767 0.6 
-3 0.0550883 0.6 -3 0.0251048 0.6 -3 0.125264 0.6 
-3 0.175348 0.6 -3 0.187145 0.6 -3 0.225405 0.6 
-3 0.275415 0.6 -3 0.325377 0.6 -3 0.375304 0.6 
-3 0.42522 0.6 -3 0.475143 0.6 -3 0.525084 0.6 
-3 0.575045 0.6 -3 0.625022 0.6 -3 0.67501 0.6 
-3 0.725004 0.6 -3 0.775001 0.6 -3 0.824999 0.6 
-3 0.874997 0.6 -3 0.924994 0.6 -3 0.974987 0.6 
-3 1.02497 0.6 -3 1.07495 0.6 -3 1.17487 0.6 
-3 1.17283 0.6 -3 1.12492 0.6 -3 1.22482 0.6 
-3 1.27476 0.6 -3 1.32471 0.6 -3 1.37467 0.6 
-3 1.42466 0.6 -3 1.4747 0.6 -3 1.52483 0.6 
-3 1.57509 0.6 -3 1.62556 0.6 -3 1.6763 0.6 
-3 1.72722 0.6 -3 1.7618 0.6 -3 1.7779 0.6 
-3 1.82745 0.6 -3 1.87473 0.6 -3 1.91897 0.6 
-3 1.96035 0.6 -2.9551 -2.21053 0.6 2.4551 -2.21053 0.6 
2.4551 1.96053 0.6 -2.95443 -2.16881 0.6 -2.9551 1.96053 0.6 
-2.90805 1.961 0.6 -2.85844 1.96129 0.6 -2.95443 1.91881 0.6 
-2.95383 1.87385 0.6 -2.95345 1.8261 0.6 -2.95326 1.77662 0.6 
-2.95322 1.75529 0.6 -2.95317 1.72634 0.6 -2.95314 1.67583 0.6 
-2.95312 1.62538 0.6 -2.95311 1.57507 0.6 -2.9531 1.52488 0.6 
-2.9531 1.47478 0.6 -2.95309 1.42475 0.6 -2.95308 1.37476 0.6 
-2.95307 1.32479 0.6 -2.95306 1.27482 0.6 -2.95306 1.22487 0.6 
-2.95305 1.18604 0.6 -2.9949 1.17487 0.6 -2.95305 1.1749 0.6 
-2.95305 1.12494 0.6 -2.95305 1.07496 0.6 -2.95305 1.02498 0.6 
-2.95305 0.974988 0.6 -2.95305 0.924994 0.6 -2.95305 0.874998 0.6 
-2.95305 0.824999 0.6 -2.95305 0.775001 0.6 -2.95305 0.725004 0.6 
-2.95305 0.675009 0.6 -2.95305 0.62502 0.6 -2.95305 0.575039 0.6 
-2.95305 0.525071 0.6 -2.95305 0.475116 0.6 -2.95305 0.425172 0.6 
-2.95305 0.375233 0.6 -2.95305 0.325283 0.6 -2.95305 0.275309 0.6 
-2.95306 0.17526 0.6 -2.96868 0.175289 0.6 -2.95306 0.2253 0.6 
-2.80715 1.96138 0.6 2.40805 1.961 0.6 2.35844 1.96129 0.6 
2.30715 1.96138 0.6 2.25526 1.96133 0.6 2.20345 1.96123 0.6 
2.15202 1.96116 0.6 2.10106 1.9611 0.6 2.05051 1.96107 0.6 
[...]
CELL_DATA 4781
SCALARS p float
LOOKUP_TABLE default
0.550905 0.551927 0.602329 0.629878 0.662259 0.69075 0.719509 0.747802 0.775735 
0.803466 0.830653 0.85742 0.883538 0.909188 0.93408 0.958422 0.981994 1.005 
1.02709 1.04856 1.06911 1.08897 1.10754 1.12556 1.1426 1.15871 1.17199 
1.18329 1.19112 1.19386 1.19465 1.17759 1.16142 0.278225 0.287114 0.249519 
0.277571 0.297498 0.299784 0.285729 0.267941 0.25081 0.23456 0.218944 0.203521 
0.188254 0.173183 0.158538 0.14391 0.129661 0.115518 0.101719 0.0877848 0.073982 
0.0600088 0.0462028 0.0321789 0.018301 0.0042605 -0.00947783 -0.0230289 -0.0349181 -0.045862 
-0.0489988 -0.0545769 -0.0614491 0.932345 0.978029 1.00662 0.991061 0.968419 0.952108 
0.938812 0.924475 0.909273 0.892557 0.87517 0.856423 0.837332 0.817187 0.796751 
0.775199 0.753401 0.730649 0.707585 0.683362 0.658757 0.633074 0.606855 0.579261 
0.551057 0.52145 0.491057 0.459002 0.427029 0.392033 0.360689 0.319732 0.291067 
-0.0972928 -0.107724 -0.118739 -0.119975 -0.11631 -0.112118 -0.108151 -0.103733 -0.100275 
-0.0968948 -0.0933297 -0.0894144 -0.0850543 -0.0802889 -0.0751119 -0.0695434 -0.0635197 -0.0569678 
-0.0497854 -0.041895 -0.0332002 -0.0236143 -0.0131167 -0.00201937 0.00972653 0.0226967 0.0367269 
0.0479667 0.0495132 0.043197 0.0345295 0.0697509 0.0768959 0.236345 0.245212 0.244098 
0.239443 0.234899 0.23054 0.225603 0.220151 0.214058 0.207723 0.201094 0.194352 
0.187223 0.180047 0.172186 0.164117 0.155209 0.145992 0.135892 0.125477 0.11414 
0.102504 0.0899134 0.0770768 0.0632407 0.0492059 0.0341042 0.0188405 0.00234042 -0.0143312 
-0.0325012 -0.0509081 -0.0704386 -0.0898452 -0.110412 -0.130479 -0.151482 -0.171938 -0.193609 
-0.214781 -0.237276 -0.25921 -0.282538 -0.305264 -0.329464 -0.352991 -0.37802 -0.40229 
-0.428056 -0.452933 -0.479363 -0.504876 -0.532018 -0.558173 -0.586029 -0.612854 -0.641434 
-0.668942 -0.698251 -0.726425 -0.756407 -0.785188 -0.815801 -0.845147 -0.876332 -0.906225 
-0.937963 -0.968312 -1.00052 -1.03128 -1.06389 -1.09496 -1.12784 -1.15916 -1.19225 
-1.22375 -1.25688 -1.28837 -1.32116 -1.35225 -1.38442 -1.41507 -1.44658 -1.47659 
-1.50724 -1.53627 -1.56577 -1.59346 -1.62136 -1.64728 -1.67309 -1.69675 -1.71995 
-1.7408 -1.76086 -1.77854 -1.79524 -1.80961 -1.82293 -1.83412 -1.84423 -1.85246 
-1.85929 -1.86402 -1.86705 -1.86839 -1.86798 -1.86713 0.216519 -1.86654 -1.86667 
-1.86817 -1.86996 -1.87316 -1.87812 -1.88508 -1.89474 -1.90576 -1.91941 -1.93442 
-1.95207 -1.9715 -1.47644 -1.49543 -1.99412 -1.51708 -1.53972 -1.56427 -1.58855 
-2.153 -2.18802 -2.22 -2.24676 -2.27152 -2.29224 -2.31359 -2.33032 -2.34567 
-2.3536 -2.36016 -2.3569 -2.35294 -2.33966 -2.3267 -2.30461 -2.28352 -1.61205 
-2.25368 -2.22519 -1.58069 -1.55089 -1.51329 -1.47625 -1.43143 -1.38834 -1.34117 
-1.29797 -1.25295 -1.2124 -1.17079 -1.13326 -1.0947 -1.60325 -1.56514 -1.52664 
-1.49159 -1.45609 -1.4236 -1.39077 -1.36059 -1.33024 -1.30225 -1.27423 -1.24837 
-1.22263 -1.19881 -1.17521 -1.15335 -1.13178 -1.11179 -1.09215 -1.07395 -1.05617 
-1.03975 -1.02376 -1.00901 -0.994735 -0.981642 -0.969085 -0.957705 -0.947071 -0.937989 
-0.930054 -0.922998 -0.915707 -0.909842 -0.9087 -0.913196 -0.920501 -1.86656 1.09893 
1.10354 1.09808 1.09409 1.09272 1.09452 1.09922 1.10655 1.11483 1.12521 
1.13582 1.14794 1.15939 1.1717 1.18189 1.19203 1.19878 1.20498 1.20695 
1.20786 1.20424 1.19935 1.18995 1.17966 1.16506 1.14997 1.13091 1.11137 
1.08807 1.06478 1.03792 1.01144 0.981557 0.951956 0.919298 0.886923 0.85183 
0.817542 0.780502 0.74468 0.705581 0.666814 0.625339 0.585451 0.542943 0.502578 
0.461133 0.422366 0.382113 0.344076 0.30438 0.266823 0.227694 0.190729 0.152452 
0.11647 0.0792273 0.0440449 0.00761643 -0.0268441 -0.0623802 -0.0959095 -0.130304 -0.162739 
-0.196 -0.227427 -0.259621 -0.290034 -0.321098 -0.350342 -0.380125 -0.408136 -0.436609 
-0.463375 -0.490504 -0.515996 -0.541668 -0.56572 -0.589866 -0.612483 -0.635095 -0.656248 
-0.677303 -0.696964 -0.716421 -0.734565 -0.752409 -0.768999 -0.785146 -0.800025 -0.814365 
-0.827496 -0.839968 -0.851266 -0.861825 -0.871251 -0.879908 -0.887549 -0.894566 -0.900756 
-0.906483 -0.91134 -0.914854 -0.916554 -0.917167 -0.919372 -0.920976 -0.919468 -0.927339 
1.09295 0.221741 0.238945 0.239559 0.238887 0.239553 0.240669 0.242564 0.245189 
0.248544 0.25246 0.256991 0.26202 0.267635 0.273641 0.280237 0.28722 0.294772 
0.302635 0.310992 0.319545 0.328518 0.337566 0.346959 0.356347 0.366022 0.375574 
0.385374 0.394924 0.404652 0.413933 0.423364 0.432092 0.440772 0.448595 0.456541 
0.463244 0.469189 0.472273 0.472848 0.468624 0.460656 0.446949 0.429259 0.405868 
0.874795 0.379343 0.347352 0.846649 0.811546 0.772502 0.22034 0.164023 0.107397 
0.0525639 0.00799591 -0.0288674 -0.0537792 -0.0711759 -0.0801428 -0.0785673 -0.0655183 -0.0447462 
-0.0126268 0.025105 0.0675698 0.111993 0.158825 0.210859 0.910116 0.268851 0.333755 
0.984138 1.06763 1.15595 1.24752 1.3324 1.40111 1.44977 1.48372 1.51019 
1.53167 1.54792 1.55875 1.06241 1.06847 1.07069 1.07352 1.08107 0.209645 
1.09292 0.221507 -1.86622 -0.92635 0.21949 1.07986 1.08639 1.07894 1.07569 
1.07452 1.07368 1.0706 1.06278 1.5597 1.54764 1.53079 1.5093 1.48312 
1.44966 1.40179 1.33417 1.25063 1.16 1.07183 0.986818 0.414214 0.335118 
0.910246 0.266898 0.20608 0.151904 0.103791 0.0586431 0.0158141 -0.0220583 -0.0542251 
-0.0749474 -0.0878649 -0.0892744 -0.0799845 -0.0625437 -0.037469 -0.000777509 0.0440229 0.0985913 
0.211416 0.763636 0.155386 1.08313 -0.924358 -0.923524 -0.92231 -0.919598 -0.918237 
-0.916013 -0.912209 -0.907017 -0.900963 -0.894443 -0.887113 -0.87914 -0.870178 -0.860453 
-0.849656 -0.838118 -0.82546 -0.812143 -0.797669 -0.782656 -0.76642 -0.749732 -0.731818 
-0.713589 -0.694071 -0.674339 -0.653242 -0.632039 -0.609402 -0.586751 -0.562594 -0.538523 
-0.51286 -0.487369 -0.460256 -0.433479 -0.405007 -0.376985 -0.34721 -0.317952 -0.286881 
-0.256436 -0.22422 -0.192733 -0.159426 -0.126918 -0.092475 -0.0588788 -0.0233014 0.0112332 
0.0477243 0.0830091 0.12033 0.15641 0.194748 0.231796 0.270987 0.308643 0.348433 
0.386587 0.426934 0.4658 0.507331 0.54779 0.590348 0.630256 0.671688 0.710489 
0.749603 0.785448 0.822452 0.856744 0.891791 0.924142 0.95674 0.986286 1.01608 
1.04246 1.06919 1.09233 1.11544 1.13475 1.15354 1.16833 1.18255 1.19241 
1.20131 1.20561 1.20854 1.20683 1.20393 1.19666 1.18868 1.17713 1.16538 
1.15128 1.13807 1.12454 1.11327 1.1025 1.09401 1.08661 1.08184 1.07932 
1.07976 -1.86615 -1.86768 -1.86964 -1.87305 -1.87818 -1.88524 -1.89494 -1.90597 
-1.91961 -1.93461 -1.95223 -1.97165 -1.99428 -2.1172 -2.1551 -2.19164 -2.22583 
-2.25522 -2.28228 -2.30418 -2.32522 -2.33981 -2.3523 -2.35732 -2.36166 -2.35685 
-2.35203 -2.33838 -2.32541 -2.30352 -2.28271 -2.25312 -2.22482 -1.05658 -1.07422 
-1.09233 -1.11191 -1.13186 -1.15341 -1.17525 -1.19884 -1.22265 -1.24839 -1.27424 
-1.30226 -1.33025 -1.3606 -1.39077 -1.42361 -1.4561 -1.4916 -1.52665 -1.56515 
-1.60325 -1.64548 -1.17077 -1.21233 -1.25281 -1.29774 -1.34087 -1.38801 -1.43112 
-1.47598 -1.51306 -1.55066 -1.58039 -1.61162 -1.59186 -1.56639 -1.54107 -1.51798 
-1.49606 -1.47695 -1.13328 -1.09473 -1.04036 -1.02466 -1.01034 -0.996639 -0.984333 
-0.9728 -0.962686 -0.953463 -0.945757 -0.938838 -0.93231 -0.92529 -0.919832 -0.91894 
-0.922342 0.231722 0.237868 0.236424 0.232078 0.228015 0.224388 0.220424 0.216078 
0.211037 0.205592 0.199631 0.193386 0.186597 0.179649 0.171938 0.163965 0.155117 
0.145937 0.135861 0.125459 0.114129 0.102497 0.0899087 0.0770729 0.063237 0.0492019 
0.0341 0.0188359 0.0023356 -0.0143363 -0.0325064 -0.0509134 -0.070444 -0.0898505 -0.110418 
-0.130484 -0.151487 -0.171943 -0.193614 -0.214786 -0.23728 -0.259214 -0.282544 -0.305269 
-0.329467 -0.352994 -0.378023 -0.402293 -0.428059 -0.452935 -0.479365 -0.504879 -0.532021 
-0.558175 -0.586032 -0.612856 -0.641436 -0.668944 -0.698253 -0.726427 -0.756409 -0.78519 
-0.815803 -0.845148 -0.876333 -0.906227 -0.937964 -0.968314 -1.00052 -1.03128 -1.06389 
-1.09496 -1.12784 -1.15916 -1.19225 -1.22376 -1.25688 -1.28837 -1.32116 -1.35226 
-1.38442 -1.41507 -1.44659 -1.4766 -1.50724 -1.53628 -1.56577 -1.59346 -1.62136 
-1.64728 -1.6731 -1.69675 -1.71995 -1.7408 -1.76086 -1.77854 -1.79524 -1.80961 
-1.82293 -1.83413 -1.84423 -1.85247 -1.85929 -1.86404 -1.86707 -1.86842 -1.868 
-1.86701 -1.86714 -0.919519 -0.921745 -0.922108 -0.924833 -0.920501 -0.926146 -0.923125 
-0.921198 -0.929789 -0.679712 -0.928241 -0.971673 -0.961608 -0.952613 -0.945399 -0.939125 
-0.933325 -0.926697 -0.934428 -0.923832 -0.940657 -0.689107 -0.947096 0.409965 -0.0744045 
-0.685709 -0.677711 -0.924987 -0.90092 -0.906701 -0.911941 -0.916179 -0.919421 -0.921345 
-0.670935 -0.916124 -0.910374 -0.660123 -0.904057 -0.894643 -0.896828 -0.887485 -0.879574 
-0.888871 -0.870081 -0.860945 -0.870692 -0.879803 -0.627019 -0.645322 -0.651109 -0.66674 
-0.678288 -0.953945 -0.702372 -0.96079 -0.969868 -0.718573 -0.979234 -0.697866 -0.71327 
-0.704334 -0.689641 -0.677408 -0.691532 -0.983385 -0.991299 -0.740369 -1.00322 -0.995849 
-0.724919 -0.798186 -0.812674 -0.825999 -0.83864 -0.850198 -0.859003 -0.605306 -0.847604 
-0.83452 -0.580088 -0.821571 -0.63235 -0.642132 -0.661257 -0.674753 -0.65505 -0.75922 
-0.75022 -0.766893 -0.783184 -0.792089 -0.551392 -0.80648 -0.775032 -0.519324 -0.632203 
-0.619769 -1.04874 -1.03186 -1.01791 -1.00986 -1.02435 -0.767486 -1.04036 -1.0567 
-1.06452 -0.798971 -1.07463 -1.08345 -0.834372 -1.1009 -1.09277 -0.792713 -0.827996 
-1.11259 -1.1219 -0.873607 -1.14095 -1.13254 -0.761321 -0.734488 -1.15435 -1.16412 
-0.916684 -1.18477 -1.17614 -0.867052 -1.27562 -1.24987 -1.22377 -1.20003 -1.21027 
-0.963668 -1.23257 -1.26059 -1.0146 -1.28464 -1.30412 -1.52876 -1.4943 -1.45831 
-1.4262 -1.39281 -1.36286 -1.33197 -1.3412 -1.31533 -1.0695 -1.37466 -1.1284 
-1.40249 -1.43862 -1.1913 -1.46844 -1.50712 -1.25823 -1.53908 -1.56765 -1.64737 
-1.60498 -1.6155 -1.58043 -1.3293 -1.13561 -1.13035 -1.65991 -1.40506 -1.1622 
-1.17193 -1.21389 -1.20802 -1.48554 -1.24198 -1.25292 -1.29805 -1.29038 -1.57048 
-1.32612 -1.33944 -0.909969 -0.956806 -1.00759 -0.610351 -0.584923 -0.593972 -0.54416 
-0.532638 -0.523861 -0.556064 -0.740281 -0.694442 -0.714064 -0.732232 -0.723212 -0.484014 
-0.445563 -0.702405 -0.684058 -0.674798 -0.661426 -0.653577 -0.632494 -0.641881 -0.404087 
-0.617488 -0.609704 -0.58721 -0.596775 -0.359638 -0.564887 -0.57664 -0.606033 -0.711443 
-0.753645 -0.722773 -0.695901 -0.672998 -0.693747 -0.71789 -0.736713 -0.75116 -0.746245 
-0.766377 -0.781934 -0.816619 -0.799988 -0.855146 -0.85532 -0.814967 -0.778603 -0.7249 
-0.570607 -0.562895 -0.539004 -0.548696 -0.312208 -0.520792 -0.513134 -0.487816 -0.497664 
-0.261832 -0.46814 -0.38757 -0.377432 -0.405231 -0.433952 -0.46048 -0.443996 -0.208595 
-0.15262 -0.412892 -0.354978 -0.347407 -0.318421 -0.328608 -0.09406 -0.408327 -0.449895 
-0.48845 -0.459232 -0.49739 -0.508718 -0.470454 -0.429437 -0.632123 -0.610505 -0.591482 
-0.621845 -0.649059 -0.670608 -0.642059 -0.695799 -0.665447 -0.692512 -0.558121 -0.576189 
-0.596347 -0.618925 -1.06232 -1.12098 -0.943836 -0.897547 -0.879022 -0.83754 -0.994028 
-0.973598 -0.924392 -0.947575 -0.916835 -0.870296 -0.827472 -0.788559 -0.899567 -0.881073 
-1.18347 -1.2497 -1.16783 -1.10616 -1.04815 -1.02661 -1.08334 -1.38683 -1.65743 
-1.4283 -1.41134 -1.37593 -1.5465 -1.46886 -1.39279 -1.31953 -1.44188 -1.23276 
-1.20681 -1.14357 -1.30045 -1.37038 -1.33937 -1.27233 -1.05434 -0.999215 -0.966885 
-1.02023 -0.495201 -0.475716 -0.457037 -0.441875 -0.483128 -0.521915 -0.539157 -0.499335 
-0.558473 -0.518341 -0.538179 -0.579271 -0.656921 -0.685525 -0.754834 -0.718127 -0.758678 
-0.723571 -0.758043 -0.795229 -0.644829 -0.674429 -0.708105 -0.745845 -1.09114 -1.03465 
-0.980522 -0.929222 -0.886537 -0.840522 -0.797782 -0.83632 -0.795314 -0.83899 -0.786952 
-0.830741 -0.885456 -0.935512 -1.07656 -1.11269 -1.17383 -1.13545 -0.876872 -0.934432 
-2.24874 -2.21986 -1.50979 -1.47373 -1.45948 -1.74197 -1.48991 -1.53168 -1.54849 
-1.57755 -1.556 -1.81294 -1.75899 -1.69591 -1.62334 -1.59104 -1.60969 -2.21684 
-2.24538 -1.87013 -1.81248 -2.27886 -2.35212 -2.35525 -2.35079 -2.34525 -2.33192 
-2.3183 -2.29641 -2.27511 -2.29992 -1.91629 -1.85717 -1.89175 -0.224452 -0.256913 
-0.287109 -0.29462 -0.0331155 -0.267207 -0.231905 0.0300349 -0.203575 -0.193233 -0.166982 
-0.159677 -0.127487 -0.13781 0.0953172 -0.265455 -0.0999081 -0.0928037 -0.0595209 -0.0698072 
0.162651 -0.0306115 -0.0236327 0.0105416 0.00010027 -0.418128 -0.373996 -0.363764 -0.398062 
-0.385635 -0.164359 -0.155297 -0.211803 -0.221771 -0.275921 -0.326658 -0.316128 -0.28878 
-0.338879 -0.234983 -0.177593 -0.117105 -0.351502 -0.301728 -0.316918 -0.366123 -0.412657 
-0.450156 -0.430855 -0.383972 -0.30215 -0.282118 -0.264055 -0.248181 -0.190729 -0.206767 
-0.334737 -0.354474 -0.40333 -0.244656 -0.224918 -0.163158 -0.145423 -0.129974 -0.0666425 
-0.0541708 -0.0414959 -0.0347666 -0.0961745 0.0286501 0.0940495 0.0888519 0.0229486 0.0107951 
0.077469 0.0473252 0.0821869 0.0715679 -0.538157 -0.5159 -0.559807 -0.602689 -0.629086 
-0.58361 -0.659079 -0.609955 -0.639714 -0.693198 -0.562081 -0.514853 -0.539051 -0.588133 
-0.492007 -0.470454 -0.104088 0.231864 0.230304 0.161336 0.0404112 0.302797 0.145439 
0.156034 0.224593 0.214771 0.300925 0.373295 0.375406 0.113007 0.119787 0.155366 
0.144735 0.366783 0.294771 0.285913 0.359192 0.0228707 0.0356448 0.050518 0.0660909 
-0.00109567 -0.015787 -0.0813096 -0.0314257 -0.0981201 -0.11544 -0.182007 -0.375379 -0.323143 
-0.265495 -0.287571 -0.491007 -0.46768 -0.445234 -0.423724 -0.397137 -0.345019 -0.311036 
-0.368235 -0.98561 -1.04113 -0.987186 -1.14928 -1.40709 -1.47447 -1.51388 -1.36538 
-1.30117 -1.23698 -1.19618 -1.2578 -1.42852 -1.37913 -1.31918 -1.32379 -1.1254 
-1.07614 -1.02566 -0.974963 -0.925089 -0.731203 -1.58133 -1.53855 -1.48999 -1.43646 
-1.48931 -1.53982 -1.58443 -1.65122 -1.60107 -1.71069 -1.65602 -1.70359 -1.76141 
-1.59757 -1.54618 -1.64256 -1.68049 -1.92378 -1.91446 -1.97322 -2.35173 -2.3361 
-2.32334 -1.95114 -2.35558 -2.36288 -1.98101 -2.35752 -2.34737 -2.35593 -1.97484 
-2.34146 -2.3361 -1.8679 -1.61774 -1.64721 -1.71075 -1.77449 -1.74326 -1.80326 
-1.83567 -1.66929 -1.746 -1.73274 -1.79645 -1.85749 -1.80826 -1.81025 -2.19299 
-2.23399 -2.25565 -2.29066 -2.30662 -2.33202 -2.32219 -2.30169 -1.95598 -2.27971 
-2.25106 -1.92593 -1.88191 -1.84948 -1.88478 -2.22215 -2.18771 -1.90564 -1.92004 
-1.86707 -1.95577 -1.97537 -1.99737 -2.11599 -2.15296 -2.16603 -1.83517 -2.12325 
-1.55883 -1.56866 -1.54394 -1.53666 -1.78659 -1.51358 -1.5214 -1.49986 -1.49358 
-1.74294 -2.00774 -1.47398 -1.48101 -1.98856 -1.70473 -1.96564 -1.93825 -1.87047 
-1.87433 -1.87976 -1.88761 -1.89775 -1.90911 -1.92296 -1.93221 -1.94968 -1.67272 
-1.91907 -1.64789 -1.90686 -1.8973 -1.62991 -1.88837 -1.88413 -1.62182 -1.87467 
-1.86851 -1.87326 -1.87432 -1.86835 -1.87627 -1.86696 -1.86875 -1.86433 -1.2934 
-1.25709 -1.21662 -1.1725 -1.24603 -1.19668 -1.14497 -1.09186 -1.03839 -1.09665 
-1.15283 -1.20816 -1.2086 -1.26672 -0.860677 -0.657877 -0.623667 -0.592729 -0.564775 
-0.617195 -0.673497 -0.710976 -0.772187 -0.649893 -0.686102 -0.751284 -0.815469 -0.793722 
-0.72519 -0.595486 -1.75045 -1.69009 -1.68358 -1.26292 -1.31473 -1.37822 -1.42899 
-1.36309 -1.47517 -1.40725 -1.44658 -1.51606 -1.33435 -1.29214 -0.907507 -0.810476 
-0.772528 -0.733601 -0.694913 -0.766295 -0.837671 -0.882421 -0.955268 -0.808355 -0.850364 
-0.927239 -1.00301 -1.04976 -0.971169 -0.41988 -0.442991 -0.39234 -0.336141 -0.273072 
-0.731059 -0.696382 -0.661258 -0.627164 -0.565716 -0.539129 -0.513993 -0.489725 -0.466106 
-0.515106 -0.5402 -0.439403 -0.416187 -0.361769 -0.386544 0.348871 0.274521 0.187419 
0.194019 0.230626 0.219781 0.449655 0.263483 0.270206 0.307368 0.296095 0.347549 
0.385254 0.373832 0.603361 0.340778 0.525536 0.523183 0.447347 0.601415 0.682449 
0.419662 0.426079 0.464509 0.453513 0.683608 0.203262 0.134144 0.117438 0.185821 
0.25722 0.332748 0.237523 0.16851 0.102123 0.0896339 0.154226 -1.21014 -1.17538 
-1.13666 -1.09457 -1.01331 -1.05297 -1.37216 -1.4051 -1.55117 -1.48059 -1.50892 
-1.58002 -1.43277 -1.32511 -1.35186 -0.891332 -0.930429 -0.846569 -0.880461 -0.967247 
-0.912165 -1.00142 -1.0896 -1.12256 -1.24043 -1.61756 -1.60227 -1.53123 -1.54723 
-1.62585 -1.38943 -1.37336 -1.45489 -1.47121 -1.39984 -1.81147 -1.83797 -1.8567 
-1.80328 -1.68922 -1.74664 -1.7359 -1.71982 -1.76817 -1.78882 -1.81074 -1.7708 
-1.7327 -1.69749 -1.62649 -1.65231 -1.67679 -1.6996 -1.74259 -1.77941 -1.7458 
-1.7147 -1.71283 -1.68622 -1.6578 -1.6813 -1.68169 -1.66906 -1.65285 -1.63383 
-1.58822 -1.61219 -1.56322 -1.66677 -1.6428 -1.65293 -1.62531 -1.61712 -1.61333 
-1.63033 -1.61039 -1.63141 -1.61279 -1.62271 -1.62746 -1.56019 -1.55686 -1.55751 
-1.54971 -1.47833 0.434713 0.440927 0.517526 0.512503 0.210337 0.193809 0.177796 
0.162137 0.147074 0.132137 0.117697 0.10343 0.0896103 0.0756943 0.0619812 0.0481231 
0.0344889 0.0206392 0.00699116 -0.00677746 -0.0201427 -0.0332962 -0.044801 -0.0556383 -0.0590938 
-0.0651329 -0.072471 -0.113382 -0.122419 -0.134946 -0.135869 -0.133259 -0.13105 -0.128933 
-0.126218 -0.123616 -0.120564 -0.116993 -0.112866 -0.108227 -0.103124 -0.0975815 -0.0915435 
-0.0849688 -0.0777325 -0.0697258 -0.0607789 -0.0507605 -0.0395046 -0.0271494 -0.0143315 -0.0012984 
0.0124337 0.0267299 0.0380218 0.040318 0.0339467 0.0237083 0.0588668 0.0681128 0.284626 
0.312617 0.353563 0.384832 0.419654 0.451388 0.483194 0.513373 0.542823 0.570896 
0.598381 0.624494 0.650097 0.674632 0.698806 0.721833 0.74459 0.766424 0.788067 
0.808636 0.828993 0.848361 0.867486 0.885349 0.902649 0.918486 0.93342 0.947013 
0.962885 0.98375 0.997806 0.974104 0.931017 1.16037 1.17462 1.19066 1.18885 
1.18492 1.17689 1.16565 1.15236 1.13647 1.11955 1.1015 1.08285 1.06295 
1.04238 1.02086 0.998741 0.975735 0.952204 0.927904 0.903068 0.877456 0.851376 
0.824629 0.797451 0.76971 0.741768 0.713484 0.684812 0.656454 0.62426 0.596883 
0.546337 0.545951 0.271382 0.279672 0.241743 0.271603 0.292895 0.29554 0.281378 
0.262833 0.244592 0.227106 0.500646 0.506367 0.546257 0.535683 0.765747 0.58395 
0.592358 0.596757 0.678326 0.674106 0.703085 0.225474 0.589341 0.629041 0.618223 
0.670911 0.709211 0.698089 0.928572 0.665418 0.848059 0.847598 0.742983 0.748803 
0.784136 0.773227 1.00533 0.771789 0.293591 0.928451 1.00541 0.765249 0.761089 
0.843591 0.840648 0.757289 0.922849 0.924577 1.00186 1.00072 0.815959 0.82149 
0.855419 0.844369 1.07764 0.884954 0.890762 0.922842 0.911564 1.14587 0.946984 
0.468381 0.0737525 0.008661 -0.0618652 -0.0463169 -0.133771 -0.202306 -0.223796 -0.153024 
0.31159 0.290642 0.220281 0.267154 0.0292376 0.0558665 -0.00706518 -0.0786012 -0.0300303 
-0.100836 -0.175833 -0.247196 -0.202485 -0.127874 -0.377343 -0.353649 -0.328297 -0.301033 
-0.232714 -0.26342 -0.410127 -0.462477 -0.486061 -0.432976 -0.566709 -0.594602 -0.534829 
-0.527601 -0.502765 -0.478947 -0.455891 -0.50996 -0.561329 -0.625391 -0.656602 -0.0577099 
-0.000448747 0.0423931 0.0767295 0.111023 0.134641 -0.0336536 0.232607 0.1678 0.197949 
0.17605 0.12347 0.0785906 0.116054 0.390666 0.411821 0.426553 0.507169 0.493608 
0.486303 1.03089 1.04146 1.01517 0.985048 0.955731 0.949494 1.20952 0.97402 
1.00844 1.26739 1.0433 0.564878 0.473779 0.446444 0.365522 0.560133 0.577485 
0.589453 0.672497 0.662363 0.785732 0.625888 0.647834 0.534635 0.50893 -1.87331 
-1.86891 -1.85943 -1.85296 -1.60491 -1.58604 -1.59431 -1.86206 -1.56062 -1.56829 
-1.583 -1.60191 -1.56556 -1.54927 -1.53574 -1.52878 -1.81976 -1.83502 -1.84413 
-1.85456 -1.84476 -1.83387 -1.82381 -1.54106 -1.46823 -1.53822 -1.59935 -1.58294 
-1.52339 -1.48461 -1.48597 -1.48157 -1.40451 -1.40369 -1.39836 -1.45458 -1.37791 
-1.38955 -1.31596 -1.30156 -1.28632 -1.26589 -1.17514 -1.15119 -1.19433 -1.2087 
-1.31146 -1.3117 -1.31561 -1.22443 -1.22315 -1.21823 -1.13169 -1.12518 -1.42333 
-1.43817 -1.505 -1.48555 -1.36554 -1.35671 -1.47017 -1.52139 -1.50818 -1.45925 
-1.81071 -1.79623 -1.80651 -1.77969 -1.4899 -1.49599 -1.44954 -1.44449 -1.75065 
-1.7886 -1.7724 -1.76191 -1.39362 -1.33834 -1.3411 -1.34598 -1.35126 -1.41309 