# vtk DataFile Version 5.1
vtk output
ASCII
DATASET POLYDATA
POINTS 4288 float
-2.95593 -2.25 1.7 -2.91015 -2.25 1.7 -2.86164 -2.25 1.7 
-2.81054 -2.25 1.7 -2.75794 -2.25 1.7 -2.70512 -2.25 1.7 
-2.65289 -2.25 1.7 -2.60145 -2.25 1.7 -2.55065 -2.25 1.7 
-2.50026 -2.25 1.7 -2.45009 -2.25 1.7 -2.40003 -2.25 1.7 
-2.35001 -2.25 1.7 -2.3 -2.25 1.7 -2.25 -2.25 1.7 
-2.2 -2.25 1.7 -2.15 -2.25 1.7 -2.1 -2.25 1.7 
-2.05 -2.25 1.7 -2 -2.25 1.7 -1.95 -2.25 1.7 
-1.9 -2.25 1.7 -1.85 -2.25 1.7 -1.8 -2.25 1.7 
-1.75 -2.25 1.7 -1.7 -2.25 1.7 -1.65 -2.25 1.7 
-1.6 -2.25 1.7 -1.55 -2.25 1.7 -1.5 -2.25 1.7 
-1.45 -2.25 1.7 -1.4 -2.25 1.7 -1.35 -2.25 1.7 
-1.3 -2.25 1.7 -1.25 -2.25 1.7 -1.2 -2.25 1.7 
-1.15 -2.25 1.7 -1.1 -2.25 1.7 -1.05 -2.25 1.7 
-1 -2.25 1.7 -0.95 -2.25 1.7 -0.9 -2.25 1.7 
-0.85 -2.25 1.7 -0.8 -2.25 1.7 -0.75 -2.25 1.7 
-0.7 -2.25 1.7 -0.65 -2.25 1.7 -0.6 -2.25 1.7 
-0.55 -2.25 1.7 -0.5 -2.25 1.7 -0.45 -2.25 1.7 
-0.4 -2.25 1.7 -0.35 -2.25 1.7 -0.3 -2.25 1.7 
-0.25 -2.25 1.7 -0.2 -2.25 1.7 -0.15 -2.25 1.7 
-0.1 -2.25 1.7 -0.0499999 -2.25 1.7 1.59066e-07 -2.25 1.7 
0.0499998 -2.25 1.7 0.0999998 -2.25 1.7 0.15 -2.25 1.7 
0.2 -2.25 1.7 0.25 -2.25 1.7 0.3 -2.25 1.7 
0.35 -2.25 1.7 0.4 -2.25 1.7 0.45 -2.25 1.7 
0.5 -2.25 1.7 0.55 -2.25 1.7 0.6 -2.25 1.7 
0.65 -2.25 1.7 0.7 -2.25 1.7 0.75 -2.25 1.7 
0.8 -2.25 1.7 0.85 -2.25 1.7 0.9 -2.25 1.7 
0.95 -2.25 1.7 1 -2.25 1.7 1.05 -2.25 1.7 
1.1 -2.25 1.7 1.15 -2.25 1.7 1.2 -2.25 1.7 
1.25 -2.25 1.7 1.3 -2.25 1.7 1.35 -2.25 1.7 
1.4 -2.25 1.7 1.45 -2.25 1.7 1.5 -2.25 1.7 
1.55 -2.25 1.7 1.6 -2.25 1.7 1.65 -2.25 1.7 
1.7 -2.25 1.7 1.75 -2.25 1.7 1.8 -2.25 1.7 
1.85001 -2.25 1.7 1.90003 -2.25 1.7 1.95009 -2.25 1.7 
2.00026 -2.25 1.7 2.05065 -2.25 1.7 2.10145 -2.25 1.7 
2.15289 -2.25 1.7 2.20512 -2.25 1.7 2.25794 -2.25 1.7 
2.31054 -2.25 1.7 2.36164 -2.25 1.7 2.41015 -2.25 1.7 
2.45593 -2.25 1.7 -3 -2.25 1.7 2.5 -2.25 1.7 
2.5 -0.129506 1.7 2.5 -0.078186 1.7 2.5 -0.0271001 1.7 
2.5 0.023714 1.7 2.5 0.0742716 1.7 2.5 0.12462 1.7 
2.5 0.174819 1.7 2.5 0.274731 1.7 2.5 0.274969 1.7 
2.5 0.224922 1.7 2.5 0.324989 1.7 2.5 0.374997 1.7 
2.5 0.424999 1.7 2.5 0.475 1.7 2.5 0.525 1.7 
2.5 0.575 1.7 2.5 0.625 1.7 2.5 0.675 1.7 
2.5 0.725 1.7 2.5 0.775 1.7 2.5 0.825 1.7 
2.5 0.875 1.7 2.5 0.925 1.7 2.5 0.975 1.7 
2.5 1.025 1.7 2.5 1.075 1.7 2.5 1.125 1.7 
2.5 1.175 1.7 2.5 1.225 1.7 2.5 1.275 1.7 
2.5 1.325 1.7 2.5 1.375 1.7 2.5 1.42502 1.7 
2.5 1.47505 1.7 2.5 -2.21035 1.7 2.5 -2.16898 1.7 
2.5 -2.12474 1.7 2.5 -2.07746 1.7 2.5 -2.02793 1.7 
2.5 -1.97728 1.7 2.5 -1.92641 1.7 2.5 -1.87575 1.7 
2.5 -1.82537 1.7 2.5 -1.77522 1.7 2.5 -1.72524 1.7 
2.5 -1.67541 1.7 2.5 -1.62576 1.7 2.5 -1.57633 1.7 
2.5 -1.52715 1.7 2.5 -1.47824 1.7 2.5 -1.42954 1.7 
2.5 -1.38096 1.7 2.5 -0.18096 1.7 2.5 1.52514 1.7 
2.5 1.57533 1.7 2.5 1.62573 1.7 2.5 1.67641 1.7 
2.5 1.72728 1.7 2.5 1.77793 1.7 2.5 1.82746 1.7 
2.5 1.87474 1.7 2.5 1.91898 1.7 2.5 1.96035 1.7 
2.5 2 1.7 -0.2 2 1.7 -0.25 2 1.7 
-0.15 2 1.7 -0.1 2 1.7 -0.0499997 2 1.7 
5.06679e-07 2 1.7 0.0500005 2 1.7 0.1 2 1.7 
0.15 2 1.7 0.2 2 1.7 0.25 2 1.7 
0.3 2 1.7 0.35 2 1.7 0.4 2 1.7 
0.45 2 1.7 0.5 2 1.7 0.55 2 1.7 
0.6 2 1.7 0.65 2 1.7 0.7 2 1.7 
0.75 2 1.7 0.8 2 1.7 0.85 2 1.7 
0.9 2 1.7 0.95 2 1.7 1 2 1.7 
1.05 2 1.7 1.1 2 1.7 1.15 2 1.7 
1.2 2 1.7 1.25 2 1.7 1.3 2 1.7 
1.35 2 1.7 1.4 2 1.7 1.45 2 1.7 
1.5 2 1.7 1.55 2 1.7 1.6 2 1.7 
1.65 2 1.7 1.7 2 1.7 1.75 2 1.7 
1.8 2 1.7 1.85001 2 1.7 1.90003 2 1.7 
1.95009 2 1.7 2.00026 2 1.7 2.05065 2 1.7 
2.10145 2 1.7 2.15289 2 1.7 2.20512 2 1.7 
2.25794 2 1.7 2.31054 2 1.7 2.36164 2 1.7 
2.41015 2 1.7 2.45593 2 1.7 -2.91015 2 1.7 
-2.95593 2 1.7 -2.86164 2 1.7 -2.81054 2 1.7 
-2.75794 2 1.7 -2.70512 2 1.7 -2.65289 2 1.7 
-2.60145 2 1.7 -2.55065 2 1.7 -2.50026 2 1.7 
-2.45009 2 1.7 -2.40003 2 1.7 -2.35001 2 1.7 
-2.3 2 1.7 -2.25 2 1.7 -2.2 2 1.7 
-2.15 2 1.7 -2.1 2 1.7 -2.05 2 1.7 
-2 2 1.7 -1.95 2 1.7 -1.9 2 1.7 
-1.85 2 1.7 -1.8 2 1.7 -1.75 2 1.7 
-1.7 2 1.7 -1.65 2 1.7 -1.6 2 1.7 
-1.55 2 1.7 -1.5 2 1.7 -1.45 2 1.7 
-1.4 2 1.7 -1.35 2 1.7 -1.3 2 1.7 
-1.25 2 1.7 -1.2 2 1.7 -1.15 2 1.7 
-1.1 2 1.7 -1.05 2 1.7 -1 2 1.7 
-0.95 2 1.7 -0.9 2 1.7 -0.85 2 1.7 
-0.8 2 1.7 -0.75 2 1.7 -0.7 2 1.7 
-0.65 2 1.7 -0.6 2 1.7 -0.55 2 1.7 
-0.5 2 1.7 -0.45 2 1.7 -0.4 2 1.7 
-0.35 2 1.7 -0.3 2 1.7 -3 2 1.7 
-3 -2.16898 1.7 -3 -2.21035 1.7 -3 -2.12474 1.7 
-3 -2.07746 1.7 -3 -2.02793 1.7 -3 -1.97728 1.7 
-3 -1.92641 1.7 -3 -1.87573 1.7 -3 -1.82533 1.7 
-3 -1.77514 1.7 -3 -1.72505 1.7 -3 -1.67502 1.7 
-3 -1.625 1.7 -3 -1.575 1.7 -3 -1.525 1.7 
-3 -1.475 1.7 -3 -1.425 1.7 -3 -1.375 1.7 
-3 -1.325 1.7 -3 -1.275 1.7 -3 -1.225 1.7 
-3 -1.175 1.7 -3 -1.125 1.7 -3 -1.075 1.7 
-3 -1.025 1.7 -3 -0.975 1.7 -3 -0.925 1.7 
-3 -0.875 1.7 -3 -0.825 1.7 -3 -0.775 1.7 
-3 -0.725 1.7 -3 -0.675 1.7 -3 -0.625 1.7 
-3 -0.575 1.7 -3 -0.525 1.7 -3 -0.475 1.7 
-3 -0.425 1.7 -3 -0.375002 1.7 -3 -0.32501 1.7 
-3 -0.275032 1.7 -3 -0.225091 1.7 -3 -0.17523 1.7 
-3 -0.125526 1.7 -3 -0.0760933 1.7 -3 -0.0270776 1.7 
-3 0.0213743 1.7 -3 0.0691608 1.7 -3 0.116277 1.7 
-3 0.162844 1.7 -3 0.2091 1.7 -3 1.46301 1.7 
-3 1.4091 1.7 -3 1.51661 1.7 -3 1.56971 1.7 
-3 1.62228 1.7 -3 1.67445 1.7 -3 1.72626 1.7 
-3 1.77744 1.7 -3 1.87465 1.7 -3 1.87442 1.7 
-3 1.82725 1.7 -3 1.91895 1.7 -3 1.96034 1.7 
-3 0.262963 1.7 -3 0.31647 1.7 -3 0.369367 1.7 
-3 0.421547 1.7 -3 0.473042 1.7 -3 0.523978 1.7 
-3 0.574511 1.7 -3 0.624786 1.7 -3 0.674916 1.7 
-3 0.72497 1.7 -3 0.77499 1.7 -3 0.824995 1.7 
-3 0.874989 1.7 -3 0.924966 1.7 -3 0.974906 1.7 
-3 0.975143 1.7 -3 1.02476 1.7 -3 1.07446 1.7 
-3 1.12389 1.7 -3 1.17289 1.7 -3 1.22133 1.7 
-3 1.26911 1.7 -3 1.31623 1.7 -3 1.36282 1.7 
2.5 -1.32951 1.7 2.5 -1.2782 1.7 2.5 -1.22711 1.7 
2.5 -1.17629 1.7 2.5 -1.12573 1.7 2.5 -1.07538 1.7 
2.5 -1.02518 1.7 2.5 -0.975077 1.7 2.5 -0.92503 1.7 
2.5 -0.87501 1.7 2.5 -0.825003 1.7 2.5 -0.775002 1.7 
2.5 -0.725004 1.7 2.5 -0.675012 1.7 2.5 -0.625034 1.7 
2.5 -0.624796 1.7 2.5 -0.575086 1.7 2.5 -0.525198 1.7 
2.5 -0.47541 1.7 2.5 -0.42578 1.7 2.5 -0.376362 1.7 
2.5 -0.327195 1.7 2.5 -0.278277 1.7 2.5 -0.229561 1.7 
-2.95509 -2.21053 1.7 2.45509 -2.21053 1.7 2.45509 1.96053 1.7 
-2.95443 -2.16881 1.7 -2.9551 1.96052 1.7 -2.90805 1.961 1.7 
-2.85844 1.96128 1.7 -2.95443 1.91878 1.7 -2.95383 1.87378 1.7 
-2.95383 1.87355 1.7 -2.95346 1.82594 1.7 -2.95328 1.77628 1.7 
-2.95322 1.72565 1.7 -2.95323 1.67453 1.7 -2.95327 1.6231 1.7 
-2.95332 1.57138 1.7 -2.95338 1.51938 1.7 -2.95341 1.46738 1.7 
-2.95321 1.41643 1.7 -2.95299 1.36729 1.7 -2.95296 1.31915 1.7 
-2.95298 1.27097 1.7 -2.95299 1.22245 1.7 -2.95301 1.1735 1.7 
-2.95302 1.12418 1.7 -2.95303 1.07459 1.7 -2.95304 1.02481 1.7 
-2.95304 0.975156 1.7 -2.95304 0.974918 1.7 -2.95305 0.924968 1.7 
-2.95305 0.874988 1.7 -2.95305 0.824993 1.7 -2.95305 0.774989 1.7 
-2.95305 0.724972 1.7 -2.95306 0.674928 1.7 -2.95307 0.62483 1.7 
-2.95309 0.57463 1.7 -2.95312 0.524254 1.7 -2.95317 0.473607 1.7 
-2.95323 0.422584 1.7 -2.9533 0.371119 1.7 -2.95338 0.319264 1.7 
-2.95342 0.26734 1.7 -2.95301 0.167314 1.7 -2.95323 0.216428 1.7 
-2.80714 1.96138 1.7 2.40804 1.961 1.7 2.35844 1.96128 1.7 
2.30714 1.96138 1.7 2.25525 1.96132 1.7 2.20344 1.96123 1.7 
2.15201 1.96115 1.7 2.10106 1.9611 1.7 2.05051 1.96106 1.7 
2.00022 1.96104 1.7 1.95009 1.96103 1.7 1.90003 1.96102 1.7 
1.85001 1.96102 1.7 1.8 1.96102 1.7 1.75 1.96102 1.7 
1.7 1.96102 1.7 1.65 1.96102 1.7 1.6 1.96102 1.7 
1.55 1.96102 1.7 1.5 1.96102 1.7 1.45 1.96102 1.7 
1.4 1.96102 1.7 1.35 1.96102 1.7 1.3 1.96102 1.7 
1.25 1.96102 1.7 1.2 1.96102 1.7 1.15 1.96102 1.7 
1.1 1.96102 1.7 1.05 1.96102 1.7 1 1.96102 1.7 
0.95 1.96102 1.7 0.9 1.96102 1.7 0.85 1.96102 1.7 
0.8 1.96102 1.7 0.75 1.96102 1.7 0.7 1.96102 1.7 
0.65 1.96102 1.7 0.6 1.96102 1.7 0.55 1.96102 1.7 
0.5 1.96102 1.7 0.45 1.96102 1.7 0.4 1.96102 1.7 
0.35 1.96102 1.7 0.3 1.96102 1.7 0.25 1.96102 1.7 
0.2 1.96102 1.7 0.15 1.96102 1.7 0.1 1.96102 1.7 
0.0500002 1.96102 1.7 2.22173e-07 1.96102 1.7 -0.0499999 1.96102 1.7 
-0.1 1.96102 1.7 -0.15 1.96102 1.7 -0.2 1.96102 1.7 
-0.25 1.96102 1.7 -0.3 1.96102 1.7 -0.35 1.96102 1.7 
-0.4 1.96102 1.7 -0.45 1.96102 1.7 -0.5 1.96102 1.7 
-0.55 1.96102 1.7 -0.6 1.96102 1.7 -0.65 1.96102 1.7 
-0.7 1.96102 1.7 -0.75 1.96102 1.7 -0.8 1.96102 1.7 
-0.85 1.96102 1.7 -0.9 1.96102 1.7 -0.95 1.96102 1.7 
-1 1.96102 1.7 -1.05 1.96102 1.7 -1.1 1.96102 1.7 
-1.15 1.96102 1.7 -1.2 1.96102 1.7 -1.25 1.96102 1.7 
-1.3 1.96102 1.7 -1.35 1.96102 1.7 -1.4 1.96102 1.7 
-1.45 1.96102 1.7 -1.5 1.96102 1.7 -1.55 1.96102 1.7 
-1.6 1.96102 1.7 -1.65 1.96102 1.7 -1.7 1.96102 1.7 
-1.75 1.96102 1.7 -1.8 1.96102 1.7 -1.85 1.96102 1.7 
-1.9 1.96102 1.7 -1.95 1.96102 1.7 -2 1.96102 1.7 
-2.05 1.96102 1.7 -2.1 1.96102 1.7 -2.15 1.96102 1.7 
-2.2 1.96102 1.7 -2.25 1.96102 1.7 -2.3 1.96102 1.7 
-2.35001 1.96102 1.7 -2.40003 1.96102 1.7 -2.45009 1.96103 1.7 
-2.50022 1.96104 1.7 -2.55051 1.96106 1.7 -2.60106 1.9611 1.7 
-2.65201 1.96115 1.7 -2.70344 1.96123 1.7 -2.75525 1.96132 1.7 
2.45305 -0.624792 1.7 2.45304 -0.57507 1.7 2.45304 -0.525151 1.7 
2.45304 -0.475302 1.7 2.45303 -0.425558 1.7 2.45302 -0.375954 1.7 
2.45301 -0.32651 1.7 2.45301 -0.277196 1.7 2.45302 -0.227893 1.7 
2.4531 -0.178214 1.7 2.45317 -0.127861 1.7 2.45316 -0.0771344 1.7 
2.45313 -0.0264386 1.7 2.45311 0.0241071 1.7 2.45309 0.0744862 1.7 
2.45307 0.124726 1.7 2.45306 0.224938 1.7 2.45305 0.274736 1.7 
2.45306 0.174864 1.7 2.45305 -0.62503 1.7 2.45305 -0.675012 1.7 
2.45305 -0.725004 1.7 2.45305 -0.775002 1.7 2.45305 -0.825004 1.7 
2.45305 -0.87501 1.7 2.45305 -0.925025 1.7 2.45306 -0.975061 1.7 
2.45306 -1.02513 1.7 2.45307 -1.07527 1.7 2.45309 -1.12551 1.7 
2.45312 -1.1759 1.7 2.45315 -1.22645 1.7 2.45318 -1.27714 1.7 
2.45319 -1.32786 1.7 2.45312 -1.37821 1.7 2.45304 -1.42787 1.7 
2.45303 -1.47717 1.7 2.45303 -1.52648 1.7 2.45303 -1.57593 1.7 
2.45304 -1.62554 1.7 2.45304 -1.67531 1.7 2.45305 -1.72519 1.7 
2.45306 -1.77518 1.7 2.45307 -1.82528 1.7 2.4531 -1.87553 1.7 
2.45312 -1.92592 1.7 2.45315 -1.9764 1.7 2.45325 -2.02665 1.7 
[...]
CELL_DATA 3636
SCALARS p float
LOOKUP_TABLE default
-9.93953 -9.94057 -9.94192 -9.94635 -9.95063 -9.95414 -9.95863 -9.96418 -9.97062 
-9.97709 -9.98361 -9.99 -9.99655 -10.003 -10.0099 -10.0169 -10.0247 -10.0327 
-10.0417 -10.0509 -10.0612 -10.0717 -10.0832 -10.095 -10.1078 -10.1208 -10.1349 
-10.1491 -10.1646 -10.1801 -10.1968 -10.2135 -10.2319 -10.2503 -10.27 -10.2899 
-10.3114 -10.3322 -10.354 -10.3751 -10.3976 -10.4196 -10.4431 -10.466 -10.4905 
-10.5143 -10.5397 -10.5645 -10.5909 -10.6165 -10.6439 -10.6704 -10.6987 -10.7261 
-10.7553 -10.7835 -10.8136 -10.8427 -10.8738 -10.9038 -10.9359 -10.9668 -10.9998 
-11.0316 -11.0655 -11.0981 -11.1329 -11.1662 -11.2017 -11.2358 -11.2721 -11.307 
-11.344 -11.3796 -11.4171 -11.453 -11.4906 -11.5269 -11.5647 -11.6013 -11.6392 
-11.6757 -11.7134 -11.7496 -11.7868 -11.8223 -11.8585 -11.8927 -11.9272 -11.9594 
-11.9914 -12.0208 -12.0493 -12.0748 -12.0988 -12.1197 -12.1387 -12.1545 -12.1684 
-12.1793 -12.1881 -12.1945 -12.1986 -12.2004 -12.2002 -12.199 -12.1976 -12.1966 
-9.94715 -12.1961 -14.6977 -13.9426 -13.5172 -13.211 -12.9915 -12.8249 -12.1054 
-12.6904 -12.5828 -12.0111 -11.9326 -11.8617 -11.801 -11.7441 -11.694 -11.6462 
-11.6034 -11.562 -11.5247 -11.4883 -11.4553 -11.4231 -11.3938 -11.3652 -11.3391 
-11.3137 -11.2904 -11.2676 -11.2465 -11.2258 -11.2064 -11.1873 -11.1695 -12.1953 
-12.1957 -12.2011 -12.213 -12.232 -12.258 -12.2927 -12.336 -12.392 -12.4627 
-12.5563 -12.6817 -12.8537 -13.1149 -13.486 -14.2041 -15.3802 -15.9474 -11.1526 
-11.1382 -11.1271 -11.1211 -11.119 -11.1172 -11.1097 -11.0968 -11.0808 -11.0588 
-12.1961 -11.0494 -9.97076 -10.0091 -10.0488 -10.0863 -10.1251 -10.1619 -10.1997 
-10.2354 -10.272 -10.3065 -10.3418 -10.3751 -10.4092 -10.4413 -10.4741 -10.5051 
-10.5365 -10.5661 -10.5961 -10.6244 -10.6529 -10.6797 -10.7067 -10.732 -10.7574 
-10.7813 -10.8052 -10.8276 -10.8498 -10.8705 -10.8909 -10.91 -10.9287 -10.946 
-10.9629 -10.9785 -10.9934 -11.007 -11.0198 -11.0314 -11.0422 -11.0518 -11.0607 
-11.0682 -11.0745 -11.0791 -11.0814 -11.0818 -11.0815 -11.0734 -11.1001 -11.1539 
-11.1594 -11.1232 -9.16029 -9.2766 -9.38691 -9.42053 -9.37394 -9.25332 -9.1023 
-8.95334 -8.82644 -8.7304 -8.66088 -8.60492 -8.55991 -8.52071 -8.4929 -8.4728 
-8.46501 -8.46453 -8.47543 -8.49155 -8.51745 -8.54635 -8.58212 -8.61883 -8.66034 
-8.70122 -8.74542 -8.7878 -8.8331 -8.87604 -8.92184 -8.96544 -9.0117 -9.05537 
-9.10151 -9.1449 -9.19082 -9.23634 -9.28454 -9.3301 -9.37798 -9.42318 -9.46928 
-9.51223 -9.55689 -9.59884 -9.64265 -9.68381 -9.72681 -9.76736 -9.80963 -9.84949 
-9.89097 -9.93013 -9.10237 -11.0678 -9.9712 -9.99332 -10.0239 -10.014 -9.94069 
-9.90237 -9.92098 -9.93372 -9.93762 -9.93828 -9.93682 -9.93407 -9.93034 -9.92596 
-9.92099 -9.91557 -9.90978 -9.90361 -9.89713 -9.89029 -9.883 -9.87535 -9.86722 
-9.85876 -9.84982 -9.84093 -9.83221 -9.82446 -9.81775 -9.81333 -9.81099 -9.81253 
-9.81842 -9.83245 -9.8541 -9.88907 -9.93706 -10.0057 -10.0944 -10.2034 -10.3242 
-10.4513 -10.5778 -10.6951 -10.8149 -10.9715 -11.2129 -11.4916 -12.1275 -10.3372 
-10.0713 -10.0772 -10.1208 -10.0722 -9.97108 -9.84523 -9.18575 -9.7271 -9.64587 
-9.12358 -9.09417 -9.96553 -9.10237 -12.2651 -12.2652 -12.2652 -12.2651 -12.2651 
-12.2651 -12.2651 -12.2651 -12.2651 -12.2651 -12.2651 -12.2651 -12.2651 -12.2651 
-12.2651 -12.265 -12.7555 -12.7554 -12.7553 -12.7549 -12.7543 -12.7534 -12.7522 
-12.7514 -12.6708 -20.3743 -20.3744 -20.3744 -20.3744 -20.3743 -20.3743 -20.3743 
-20.3743 -20.3743 -20.3743 -20.3743 -20.3743 -20.3743 -20.3743 -20.3743 -20.3743 
-20.8581 -20.858 -20.8578 -20.8575 -20.8569 -20.856 -20.8548 -20.8539 -20.8542 
-9.94694 -12.1962 -11.0649 -9.95626 -9.14421 -9.33376 -9.22248 -9.15136 -9.18948 
-9.72003 -9.2572 -9.80194 -9.91835 -10.0409 -10.1361 -10.1777 -10.1257 -10.1068 
-10.3605 -11.7914 -12.6143 -12.7585 -12.9194 -13.1123 -13.0014 -12.972 -12.4311 
-12.6946 -13.1512 -12.311 -12.381 -12.4886 -12.5155 -12.5658 -12.2802 -13.0096 
-11.9966 -12.8265 -12.7774 -12.6122 -12.5024 -12.4714 -12.4865 -12.1059 -12.087 
-9.43984 -11.1306 -11.1481 -11.1868 -11.1128 -11.0795 -11.0926 -11.093 -11.0883 
-11.0828 -11.076 -11.0682 -11.0596 -11.05 -11.0396 -11.0281 -11.0159 -11.0025 
-10.9883 -10.973 -10.957 -10.9398 -10.922 -10.903 -10.8837 -10.863 -10.8421 
-10.8197 -10.7972 -10.7732 -10.7491 -10.7236 -10.6982 -10.6711 -10.6441 -10.6154 
-10.587 -10.5569 -10.5271 -10.4955 -10.4643 -10.4314 -10.399 -10.3648 -10.3313 
-10.2958 -10.261 -10.2243 -10.1884 -10.1504 -10.1134 -10.0744 -10.0367 -9.99687 
-9.95837 -9.91764 -9.87836 -9.83683 -9.79693 -9.75471 -9.71416 -9.6713 -9.6302 
-9.58664 -9.54481 -9.50042 -9.45767 -9.41189 -9.367 -9.31959 -9.27456 -9.22709 
-9.18238 -9.13734 -9.0952 -9.05068 -9.00899 -8.96523 -8.92469 -8.88264 -8.84419 
-8.8042 -8.76792 -8.73047 -8.69695 -8.66328 -8.63467 -8.60692 -8.58569 -8.56696 
-8.55713 -8.55146 -8.55565 -8.56564 -8.58599 -8.61224 -8.64698 -8.68694 -8.73765 
-8.80215 -8.89345 -9.01594 -9.16093 -9.30828 -9.42691 -9.47192 -20.0902 -20.1984 
-20.0836 -19.8221 -19.6796 -19.3429 -19.0137 -18.8525 -18.506 -15.9472 -14.6986 
-13.9432 -13.5176 -13.2111 -12.9916 -12.5828 -12.6905 -12.8249 -19.2546 -18.9226 
-18.9485 -18.7975 -18.7045 -18.7831 -18.9299 -18.8859 -19.2679 -19.5515 -19.5068 
-19.357 -19.0534 -18.6475 -18.434 -18.1033 -15.3789 -14.2037 -13.4861 -13.1149 
-12.8538 -12.6817 -12.5563 -12.4627 -12.392 -12.336 -12.2928 -12.258 -12.2321 
-12.213 -12.2011 -12.1957 -12.1954 -12.1054 -12.0112 -11.9326 -11.8618 -11.801 
-11.7441 -11.6941 -11.6462 -11.6035 -11.5621 -11.5248 -11.4885 -11.4556 -11.4235 
-11.3944 -11.366 -11.3403 -11.3153 -11.2927 -11.2708 -11.2508 -11.2315 -11.2137 
-11.1964 -11.1802 -11.1646 -11.1507 -11.1393 -11.1325 -11.1296 -11.1275 -11.1207 
-11.1096 -11.0958 -11.0709 -15.0285 -11.1036 -11.1144 -11.0977 -11.1067 -11.1086 
-11.3443 -11.1074 -11.1319 -11.1084 -11.0983 -11.0978 -11.3384 -11.0806 -11.0898 
-11.0964 -11.1031 -11.0995 -11.0972 -11.1168 -11.0988 -11.1088 -11.3585 -11.1168 
-11.1307 -11.1247 -11.0948 -11.3444 -11.3561 -11.3731 -11.3782 -11.1348 -11.1265 
-11.1371 -11.1445 -11.1546 -11.1459 -11.3981 -11.157 -11.1662 -11.088 -11.0738 
-11.0838 -11.0767 -11.3267 -11.066 -11.0582 -11.2929 -11.0395 -11.0508 -11.0605 
-11.0691 -11.338 -11.392 -9.93934 -12.1966 -12.1976 -12.199 -12.2002 -12.2004 
-12.1986 -12.1945 -12.1881 -12.1793 -12.1684 -12.1545 -12.1387 -12.1197 -12.0989 
-12.0748 -12.0493 -12.0209 -11.9914 -11.9595 -11.9272 -11.8928 -11.8585 -11.8223 
-11.7868 -11.7496 -11.7134 -11.6757 -11.6392 -11.6013 -11.5648 -11.5269 -11.4906 
-11.4531 -11.4171 -11.3796 -11.344 -11.307 -11.2721 -11.2358 -11.2017 -11.1663 
-11.1329 -11.0982 -11.0656 -11.0316 -10.9998 -10.9668 -10.9359 -10.9038 -10.8738 
-10.8427 -10.8137 -10.7835 -10.7553 -10.7261 -10.6987 -10.6704 -10.6439 -10.6166 
-10.5909 -10.5645 -10.5398 -10.5143 -10.4905 -10.466 -10.4431 -10.4196 -10.3977 
-10.3752 -10.3541 -10.3323 -10.3114 -10.2899 -10.2701 -10.2503 -10.2319 -10.2136 
-10.1969 -10.1801 -10.1646 -10.1492 -10.1349 -10.1208 -10.1078 -10.095 -10.0832 
-10.0717 -10.0612 -10.051 -10.0417 -10.0328 -10.0248 -10.0171 -10.0102 -10.0035 
-9.9973 -9.99121 -9.98548 -9.97988 -9.97463 -9.96964 -9.96557 -9.96235 -9.95973 
-9.95598 -9.95138 -9.94684 -12.1959 -11.4244 -11.186 -11.1715 -11.1803 -11.1955 
-11.2127 -11.2039 -11.4582 -11.221 -11.2305 -11.2503 -11.4979 -11.2705 -11.2612 
-11.2419 -11.418 -11.3686 -11.3515 -11.3646 -11.3496 -11.0493 -11.3115 -11.3222 
-11.3025 -11.3135 -11.3286 -11.3502 -11.3343 -11.0404 -11.0292 -11.0173 -11.2701 
-11.0054 -11.0167 -11.0289 -11.3825 -11.4081 -11.2787 -11.2512 -11.2433 -10.9915 
-11.0033 -10.9892 -10.9779 -10.9618 -11.2127 -10.9466 -10.9578 -10.9737 -10.2488 
-11.1786 -10.9284 -10.9405 -10.9228 -10.9117 -10.8915 -11.1 -11.141 -10.8735 
-10.8844 -10.9037 -11.1856 -11.2201 -11.2293 -11.1944 -11.2069 -11.2421 -11.3033 
-11.289 -11.2609 -11.2744 -11.3934 -11.4414 -11.4519 -11.4918 -11.5429 -11.3066 
-11.2851 -11.293 -11.3157 -11.3413 -11.5937 -11.3339 -11.3581 -11.3671 -11.3961 
-11.3892 -11.6505 -11.4164 -11.4251 -11.4578 -11.7143 -11.4516 -11.4822 -11.4905 
-11.5274 -11.5219 -11.7857 -11.5642 -11.5563 -11.5367 -11.5872 -11.3802 -11.3509 
-11.3739 -11.4049 -11.4256 -11.4633 -11.506 -11.5244 -11.4804 -11.4412 -11.4149 
-11.3186 -11.2935 -11.324 -11.3513 -11.3841 -11.422 -11.4547 -11.4826 -11.6438 
-11.7073 -11.7781 -11.7617 -11.6297 -11.5739 -11.5541 -11.6083 -11.5815 -11.5292 
-11.4997 -11.5501 -11.6063 -11.6684 -11.7051 -11.64 -11.669 -11.6921 -10.8513 
-10.8637 -10.8428 -10.8319 -10.8079 -11.1061 -11.1476 -11.1563 -11.1149 -11.1273 
-11.1687 -11.2597 -11.223 -11.2439 -11.2826 -11.3101 -11.3489 -11.3846 -11.3429 
-11.8662 -11.6402 -11.601 -11.6062 -11.6483 -11.6968 -11.6916 -11.9586 -11.7379 
-11.7459 -11.8034 -12.0666 -11.8626 -11.8548 -11.7978 -11.9472 -12.1969 -12.0019 
-11.9268 -11.9337 -12.0099 -12.1038 -12.5813 -12.9761 -12.8172 -12.6852 -12.6907 
-12.36 -12.0924 -12.1989 -12.2098 -12.3207 -12.811 -12.5765 -12.9703 -13.1839 
-14.416 -13.8134 -13.461 -13.4102 -13.1443 -12.8783 -13.6639 -13.3239 -14.1776 
-11.7366 -11.8574 -12.0502 -11.8937 -11.8113 -11.8388 -11.9248 -12.0219 -11.9849 
-12.0869 -12.1327 -12.1707 -12.3141 -11.4715 -11.4255 -11.4652 -11.5135 -11.5672 
-11.6264 -11.579 -11.5227 -11.4727 -11.4175 -11.3724 -11.3323 -10.8203 -10.7979 
-10.7872 -11.0558 -11.0084 -11.0615 -11.0137 -11.023 -10.7498 -10.7737 -10.7613 
-10.7394 -10.7117 -10.9581 -10.6886 -10.6988 -10.7241 -11.2682 -11.16 -11.1411 
-11.1837 -11.2031 -11.2242 -11.1792 -10.909 -10.9047 -10.6447 -10.6715 -10.659 
-10.6347 -10.6033 -10.6159 -10.5878 -10.5779 -10.8483 -10.7889 -10.528 -10.5574 
-10.5447 -10.5181 -11.0705 -11.0826 -11.0347 -11.1141 -11.0957 -11.0476 -11.0649 
-11.085 -10.8521 -10.7923 -10.8016 -10.9186 -10.9724 -10.9628 -11.2975 -11.2496 
-11.2009 -11.1525 -11.3163 -11.2802 -11.2269 -11.2579 -11.2005 -10.7266 -10.4554 
-10.4652 -10.4961 -10.4831 -10.4188 -10.6618 -10.3999 -10.432 -10.3901 -10.3521 
-10.3653 -10.3322 -10.3225 -10.5944 -10.5246 -10.2829 -10.2964 -10.262 -10.2523 
-10.2112 -10.2249 -10.1895 -10.1798 -10.4524 -10.3781 -10.1145 -10.151 -10.1371 
-10.1049 -10.0611 -10.2247 -9.98345 -9.99759 -10.0379 -10.0751 -10.6643 -10.7296 
-10.7386 -10.5965 -10.5262 -10.5339 -10.6045 -10.8133 -10.8735 -10.8616 -10.984 
-11.0129 -10.9968 -10.943 -10.9303 -11.5259 -11.4674 -11.381 -11.4243 -11.5219 
-11.8556 -11.7769 -11.7369 -11.8117 -11.8927 -11.9413 -11.9799 -12.035 -12.1376 
-12.7111 -12.4898 -12.9949 -12.8184 -12.4113 -12.2607 -12.2013 -12.3302 -12.2499 
-12.1729 -12.0732 -12.0055 -11.7619 -11.6913 -11.6405 -11.707 -11.6467 -11.584 
-11.5806 -11.9195 -11.8381 -11.7785 -11.8544 -11.7846 -11.7138 -11.6434 -11.7097 
-12.0954 -12.0163 -11.9339 -11.8585 -11.7786 -11.849 -11.9344 -12.0113 -12.5927 
-12.476 -12.6409 -12.5054 -12.3723 -12.2788 -12.39 -12.2845 -12.1852 -12.1005 
-12.1887 -12.8235 -14.562 -13.9296 -15.5501 -16.6214 -17.606 -15.9454 -14.6118 
-16.4625 -18.3174 -19.2904 -19.026 -18.9477 -18.6365 -16.3974 -14.9424 -16.7074 
-16.6978 -15.3396 -17.0655 -16.7137 -19.1119 -19.48 -19.653 -17.1979 -15.8529 
-16.8195 -16.9918 -19.3243 -19.322 -16.9151 -16.1711 -16.9092 -19.2769 -19.1497 
-16.3312 -16.931 -16.9503 -19.0239 -19.1209 -16.9628 -16.2752 -16.8456 -19.1936 
-19.2257 -16.0519 -16.924 -16.8898 -19.1916 -18.9827 -16.8096 -15.5891 -16.4061 
-18.7351 -18.6096 -15.1193 -16.387 -16.0842 -18.3752 -18.0403 -16.1915 -14.7146 
-15.6259 -17.2159 -16.1268 -14.0216 -15.1907 -14.1081 -14.5019 -13.941 -13.7514 
-13.4409 -13.2509 -13.3863 -13.081 -13.0556 -13.048 -12.8022 -12.8432 -12.6806 
-12.6769 -12.811 -12.5447 -12.5594 -12.4673 -10.999 -10.9788 -10.9584 -10.9006 
-11.3362 -11.2943 -11.3576 -11.4039 -11.1331 -11.1039 -11.0532 -11.0337 -11.1748 
-11.1242 -10.9407 -10.9202 -10.8584 -10.8394 -10.8252 -10.8858 -10.6729 -10.684 
-10.7501 -11.1466 -11.2003 -11.1715 -11.2308 -11.2666 -11.4545 -11.5091 -11.4326 
-11.3825 -11.3077 -11.353 -11.273 -11.2341 -11.1689 -11.095 -11.0735 -11.0199 
-11.0421 -10.985 -10.9225 -10.8996 -10.8787 -10.962 -11.0649 -11.1175 -11.1418 
-11.0884 -11.0336 -11.009 -10.947 -10.9726 -11.9199 -11.0256 -10.9989 -11.0587 
-11.1129 -11.139 -11.1999 -11.2352 -11.3162 -11.543 -11.4862 -11.5674 -11.629 
-11.6931 -11.7586 -11.6627 -11.6021 -11.5071 -11.4532 -11.4016 -11.3626 -11.275 
-11.1989 -11.1674 -11.1101 -11.0841 -12.0878 -13.7962 -13.3522 -13.0943 -14.652 
-14.2361 -13.7109 -13.0136 -13.4209 -12.6485 -12.7991 -12.6202 -12.505 -12.3809 
-13.9348 -13.3437 -13.1875 -12.9442 -12.7288 -12.8256 -13.0717 -13.178 -15.1872 
-14.9835 -14.1296 -15.259 -15.218 -14.299 -13.4815 -13.5872 -14.265 -14.3148 
-13.6455 -13.6445 -14.8058 -15.073 -14.2099 -13.9666 -14.4314 -13.8438 -13.5876 
-13.4869 -14.0418 -11.9899 -11.8891 -11.7837 -11.7236 -11.8244 -11.6739 -11.5625 
-11.4614 -11.4112 -11.3183 -10.379 -10.4536 -10.461 -10.3864 -10.3951 -10.4702 
-10.5438 -10.1461 -9.87059 -9.87981 -9.91849 -9.95969 -9.95024 -10.0284 -10.302 
-10.3028 -10.2255 -10.234 -10.3104 -10.3189 -10.2422 -9.90416 -10.6152 -10.6254 
-10.7751 -10.7615 -10.6949 -10.7079 -10.6378 -10.5644 -10.7464 -10.7262 -10.7937 
-10.8139 -10.8345 -10.8569 -10.7897 -10.7673 -10.6967 -10.7192 -10.6442 -10.6217 
-10.6008 -10.5811 -10.6555 -10.6757 -10.5532 -10.4785 -10.4881 -10.4098 -10.4019 
-10.3244 -10.5222 -10.5034 -10.4235 -10.4414 -10.3605 -10.2468 -10.2528 -10.3306 
-10.3432 -10.2646 -10.2809 -10.3001 -10.5652 -10.5428 -10.4615 -10.4838 -10.4023 
-10.3798 -10.8809 -10.9062 -10.8386 -10.8136 -10.743 -10.7679 -10.6941 -10.6685 
-10.5904 -10.6172 -10.5362 -10.509 -10.4267 -10.3457 -10.3219 -10.8647 -10.8918 
-10.9602 -10.9328 -10.4532 -10.3715 -10.7484 -10.7208 -10.794 -10.8211 -10.8494 
-11.0794 -11.0524 -11.1372 -11.1656 -11.3634 -11.2723 -11.234 -11.6185 -11.5122 
-11.5627 -11.3538 -11.3128 -11.4093 -11.4549 -11.8417 -12.2689 -12.3496 -12.4756 
-12.4917 -12.4247 -12.5646 -12.6438 -12.7108 -12.3574 -12.299 -12.2335 -12.1624 
-12.0576 -12.1216 -12.1805 -12.2328 -12.2774 -12.407 -12.5484 -12.9078 -12.9703 
-13.2566 -13.016 -13.0074 -13.2986 -13.3018 -12.762 -12.5928 -12.4464 -12.3134 
-12.3398 -12.6365 -12.6225 -12.7945 -12.8062 -12.4897 -12.3562 -12.4742 -12.7978 
-13.3574 -13.2049 -13.5821 -13.2793 -13.1748 -13.5063 -13.2685 -13.204 -12.9568 
-12.9973 -13.1144 -13.0031 -12.8287 -12.8996 -12.735 -12.6349 -12.6197 -12.7726 
-12.9391 -12.7651 -12.7184 -13.0368 -12.8921 -13.0407 -12.8851 -12.7518 -12.6778 
-12.7793 -12.8552 -12.7685 -12.6647 -12.6056 -12.6875 -12.6088 -12.5419 -12.469 
-12.594 -12.5609 -12.687 -12.6338 -12.4849 -12.4929 -12.3624 -12.359 -12.3463 
-12.4671 -12.4424 -12.3265 -12.302 -12.5804 -12.4828 -12.5231 -12.4134 -12.3805 
-12.2722 -12.236 -12.3411 -12.5264 -12.4381 -12.3875 -12.2977 -12.2008 -12.5772 
-12.6564 -12.467 -12.3904 -12.3974 -12.3407 -12.3403 -12.557 -12.2914 -12.297 
-12.2616 -12.4926 -12.2591 -12.2285 -12.2354 -12.2165 -12.2113 -12.4619 -12.2037 
-12.2043 -12.1979 -12.1963 -12.1973 -12.1998 -12.2013 -12.1976 -12.1999 -12.4927 
-12.6394 -12.551 -12.4651 -12.2019 -12.1983 -12.1967 -12.1999 -12.6127 -12.4278 
-12.4796 -12.5325 -12.4722 -12.5076 -12.5337 -12.48 -12.4551 -12.4349 -12.458 
-12.4272 -12.3665 -12.3877 -12.3369 -12.3057 -12.3411 -12.4148 -12.3712 -11.1064 
-11.196 -11.1334 -11.1607 -11.1884 -11.2626 -11.2284 -11.4995 -12.2761 -12.2612 
-12.3183 -12.1902 -12.1865 -12.1919 -12.1962 -10.2454 -9.79845 -9.83776 -9.82349 
-10.0667 -9.78955 -9.7418 -9.90547 -9.98642 -9.70752 -9.71583 -9.75562 -9.65908 
-9.67247 -9.63214 -9.62454 -9.57538 -9.82295 -9.54004 -9.54693 -9.58793 -9.91252 
-9.99045 -10.0906 -10.0793 -10.0689 -10.1474 -10.1567 -10.1656 -10.0016 -9.92309 
-9.93979 -10.0156 -10.1705 -9.73807 -9.48999 -9.50199 -9.45981 -9.45319 -9.40193 
-9.7476 -9.83189 -9.84192 -9.75539 -9.86004 -9.77238 -9.67516 -9.65881 -9.65098 
-9.36249 -9.36921 -9.41351 -9.31062 -9.562 -9.27172 -9.27733 -9.32144 -10.3995 
-10.4816 -11.0163 -10.9882 -10.92 -10.9486 -10.8787 -10.8065 -10.777 -10.703 
-10.6735 -10.645 -10.5647 -10.5944 -10.5118 -10.4295 -10.4613 -11.0069 -10.9778 
-11.0445 -11.0724 -11.0995 -11.126 -11.0634 -11.0356 -10.9684 -10.9283 -10.8981 
-10.8674 -10.8367 -10.9086 -10.9387 -10.7331 -10.6562 -10.6249 -10.5432 -10.5757 
-10.4947 -10.5293 -10.7949 -10.7639 -10.6881 -10.7203 -10.6427 -10.609 -11.1515 
-11.8962 -12.0102 -11.9515 -11.7784 -11.6588 -11.612 -11.7276 -12.0641 -12.1119 
-11.9907 -11.9462 -11.8251 -11.7023 -11.7414 -11.8669 -12.1862 -12.1529 -12.0289 
-12.0602 -11.9325 -11.7754 -11.9028 -11.8036 -11.8256 -11.9555 -12.0842 -12.2115 
-12.1007 -12.2281 -12.236 -12.1093 -12.1099 -12.2352 -12.2258 -12.1024 -12.0884 
-12.2091 -12.1873 -11.8413 -11.9715 -11.6503 -11.5031 -11.4696 -11.4331 -11.3942 
-11.2977 -11.2167 -11.2455 -11.3325 -11.3973 -11.366 -11.2742 -11.3022 -11.3287 
-11.5329 -11.5584 -11.6771 -11.6985 -11.5794 -11.5957 -11.7143 -11.5423 -11.5822 
-11.6185 -12.4051 -12.171 -12.1666 -12.1766 -12.1819 -12.1028 -11.0899 -11.1149 
-11.1763 -11.2005 -10.9851 -10.9575 -11.025 -10.9973 -10.8568 -10.826 -10.7526 
-10.7845 -10.7101 -10.5646 -10.6001 -10.6765 -10.6353 -9.47201 -9.18071 -9.18544 
-9.22979 -9.22045 -9.13147 -9.14013 -9.09859 -9.38073 -9.09341 -9.0457 -9.28885 
-9.00623 -9.0122 -9.05358 -9.36708 -9.19358 -8.95928 -8.96789 -8.92753 -8.91952 
-8.87343 -9.4673 -9.56522 -9.56475 -9.66273 -9.56841 -9.45738 -10.0966 -10.106 
-10.1774 -10.1895 -10.1188 -10.135 -10.205 -10.2244 -8.88489 -8.84687 -8.83613 
-9.09704 -9.00337 -9.2675 -9.16796 -9.15439 -9.46032 -9.3566 -9.34864 -9.24305 
-9.25491 -9.13795 -9.03582 -10.0372 -10.0246 -9.95122 -9.9654 -9.97663 -10.05 
-9.99517 -10.0674 -10.087 -10.1755 -10.1544 -10.1082 -10.2226 -10.1978 -10.2678 
-10.2933 -10.0134 -10.0345 -10.0579 -8.77139 -8.80631 -8.79051 -8.7544 -8.71008 
-8.91581 -8.67601 -8.70055 -8.73357 -9.94731 -8.78372 -8.56524 -8.60667 -8.637 
-8.66595 -8.63325 -8.83987 -8.60491 -10.1309 -10.1563 -9.78966 -9.78063 -9.87143 
-9.88443 -9.893 -9.79454 -9.80606 -9.90918 -9.92587 -9.81995 -9.83938 -9.94646 
-9.9711 -9.86488 -9.89594 -9.99992 -10.085 -10.1829 -9.68112 -9.67866 -9.56804 
-9.56209 -9.55585 -9.68088 -9.68586 -9.55351 -9.55923 -9.57507 -9.71362 -9.69583 
-10.114 -10.3206 -10.3499 -10.2768 -10.1441 -10.2108 -10.2393 -10.1747 -10.2059 
-10.269 -10.3057 -10.3807 -10.414 -10.3374 -10.3717 -10.4077 -10.4856 -10.449 
-10.887 -10.916 -10.8454 -10.8156 -10.7429 -10.6697 -10.703 -10.7744 -10.8043 
-10.874 -11.0352 -11.011 -11.0763 -11.0514 -11.4256 -11.3527 -11.4502 -11.4712 
-11.374 -11.3927 -11.4885 -11.8533 -11.8505 -11.9803 -11.9817 -11.9762 -11.851 
-11.8459 -11.9658 -11.9522 -12.0698 -12.0468 -12.1599 -12.0087 -12.023 -12.1282 
-11.9174 -11.8285 -11.8289 -11.8319 -11.839 -11.7338 -11.6294 -11.6232 -11.6163 
-11.6078 -11.7246 -11.7298 -11.7319 -11.733 -11.936 -11.9224 -12.2607 -12.2337 
-12.1538 -12.1734 -12.1507 -12.1358 -12.1574 -12.1413 -12.1223 -12.1144 -12.095 
-12.1011 -12.077 -12.127 -12.1363 -12.2085 -12.1967 -12.0512 -12.0448 -12.0684 
-12.0226 -12.0134 -11.9864 -11.9931 -11.961 -11.9288 -11.9218 -11.9509 -12.0851 
-12.0005 -11.9913 -12.0711 -12.0608 -11.9839 -12.0543 -11.9798 -11.9042 -11.9123 
-11.9157 -11.8309 -11.8323 -11.8305 -11.9071 -11.8283 -11.6357 -11.6435 -11.7361 
-11.7409 -11.6538 -11.6616 -11.7435 -11.5147 -11.5027 -11.4092 -11.4242 -11.4379 
-11.4503 -11.5344 -11.5252 -11.2699 -11.203 -11.1821 -11.1607 -11.1384 -11.2242 
-11.2475 -11.0995 -11.1216 -11.2427 -11.2232 -11.2909 -11.3105 -9.60236 -9.6393 
-9.77385 -9.73987 -9.81547 -8.83747 -8.90239 -8.98236 -9.072 -9.05807 -8.94084 
-8.96813 -8.88761 -8.82238 -8.79029 -8.85712 -10.3369 -9.31979 -9.33761 -9.45284 
-9.43994 -9.42925 -9.30867 -9.2992 -9.42247 -9.42524 -9.0923 -9.1131 -9.22424 
-9.20403 -9.19276 -9.07965 -9.18204 -9.06839 -8.9544 -8.90871 -9.00736 -8.98504 
-8.88298 -8.78696 -8.70056 -8.74886 -8.82162 -8.6419 -8.83629 -8.85766 -8.96864 
-8.71221 -8.58156 -8.54063 -9.30035 -9.31201 -9.43912 -9.46662 -9.33802 -9.37936 
-9.50534 -9.55657 -10.0674 -10.0324 -9.93272 -9.97383 -9.86319 -9.74082 -9.68656 